----- GAMESS execution script 'rungms' -----
This job is running on host adm-106348-mac.local
under operating system Darwin at Mon Jul 25 11:13:31 CEST 2016
Available scratch disk space (Kbyte units) at beginning of the job is
Filesystem 1024-blocks      Used Available Capacity  iused    ifree %iused  Mounted on
/dev/disk1   487219328 173762588 313200740    36% 43504645 78300185   36%   /
GAMESS temporary binary files will be written to /var/folders/4f/yfn5hhsj5qs66zvp9j1ymsshjvstmp/T/
GAMESS supplementary output files will be written to /var/folders/4f/yfn5hhsj5qs66zvp9j1ymsshjvstmp/T/
Copying input file 3-21G.inp to your run's scratch directory...
The generated host list is
localhost

 Distributed Data Interface kickoff program.
 Initiating 1 compute processes on 1 nodes to run the following command:
 /Users/css/Development/fortran/gamess/gamess.00.x 3-21G 

          ******************************************************
          *         GAMESS VERSION =  5 DEC 2014 (R1)          *
          *             FROM IOWA STATE UNIVERSITY             *
          * M.W.SCHMIDT, K.K.BALDRIDGE, J.A.BOATZ, S.T.ELBERT, *
          *   M.S.GORDON, J.H.JENSEN, S.KOSEKI, N.MATSUNAGA,   *
          *          K.A.NGUYEN, S.J.SU, T.L.WINDUS,           *
          *       TOGETHER WITH M.DUPUIS, J.A.MONTGOMERY       *
          *         J.COMPUT.CHEM.  14, 1347-1363(1993)        *
          **************** 64 BIT APPLE VERSION ****************

  SINCE 1993, STUDENTS AND POSTDOCS WORKING AT IOWA STATE UNIVERSITY
  AND ALSO IN THEIR VARIOUS JOBS AFTER LEAVING ISU HAVE MADE IMPORTANT
  CONTRIBUTIONS TO THE CODE:
     IVANA ADAMOVIC, CHRISTINE AIKENS, YURI ALEXEEV, POOJA ARORA,
     ANDREY ASADCHEV, ROB BELL, PRADIPTA BANDYOPADHYAY, JONATHAN BENTZ,
     BRETT BODE, KURT BRORSEN, CALEB CARLIN, GALINA CHABAN, WEI CHEN,
     CHEOL HO CHOI, PAUL DAY, ALBERT DEFUSCO, NUWAN DESILVA, TIM DUDLEY,
     DMITRI FEDOROV, GRAHAM FLETCHER, MARK FREITAG, KURT GLAESEMANN,
     DAN KEMP, GRANT MERRILL, NORIYUKI MINEZAWA, JONATHAN MULLIN,
     TAKESHI NAGATA, SEAN NEDD, HEATHER NETZLOFF, BOSILJKA NJEGIC, RYAN OLSON,
     MIKE PAK, SPENCER PRUITT, LUKE ROSKOP, JIM SHOEMAKER, LYUDMILA SLIPCHENKO,
     TONY SMITH, SAROM SOK, JIE SONG, TETSUYA TAKETSUGU, SIMON WEBB,
     PENG XU, SOOHAENG YOO, FEDERICO ZAHARIEV

  ADDITIONAL CODE HAS BEEN PROVIDED BY COLLABORATORS IN OTHER GROUPS:
     IOWA STATE UNIVERSITY:
          JOE IVANIC, AARON WEST, LAIMUTIS BYTAUTAS, KLAUS RUEDENBERG
     UNIVERSITY OF TOKYO: KIMIHIKO HIRAO, TAKAHITO NAKAJIMA,
          TAKAO TSUNEDA, MUNEAKI KAMIYA, SUSUMU YANAGISAWA,
          KIYOSHI YAGI, MAHITO CHIBA, SEIKEN TOKURA, NAOAKI KAWAKAMI
     UNIVERSITY OF AARHUS: FRANK JENSEN
     UNIVERSITY OF IOWA: VISVALDAS KAIRYS, HUI LI
     NATIONAL INST. OF STANDARDS AND TECHNOLOGY: WALT STEVENS, DAVID GARMER
     UNIVERSITY OF PISA: BENEDETTA MENNUCCI, JACOPO TOMASI
     UNIVERSITY OF MEMPHIS: HENRY KURTZ, PRAKASHAN KORAMBATH
     UNIVERSITY OF ALBERTA: TOBY ZENG, MARIUSZ KLOBUKOWSKI
     UNIVERSITY OF NEW ENGLAND: MARK SPACKMAN
     MIE UNIVERSITY: HIROAKI UMEDA
     NAT. INST. OF ADVANCED INDUSTRIAL SCIENCE AND TECHNOLOGY: KAZUO KITAURA
     MICHIGAN STATE UNIVERSITY:
          KAROL KOWALSKI, MARTA WLOCH, JEFFREY GOUR, JESSE LUTZ,
          WEI LI, PIOTR PIECUCH
     UNIVERSITY OF SILESIA: MONIKA MUSIAL, STANISLAW KUCHARSKI
     FACULTES UNIVERSITAIRES NOTRE-DAME DE LA PAIX:
          OLIVIER QUINET, BENOIT CHAMPAGNE
     UNIVERSITY OF CALIFORNIA - SANTA BARBARA: BERNARD KIRTMAN
     INSTITUTE FOR MOLECULAR SCIENCE:
          KAZUYA ISHIMURA, MICHIO KATOUDA, AND SHIGERU NAGASE
     UNIVERSITY OF NOTRE DAME: ANNA POMOGAEVA, DAN CHIPMAN
     KYUSHU UNIVERSITY:
          HARUYUKI NAKANO,
          FENG LONG GU, JACEK KORCHOWIEC, MARCIN MAKOWSKI, AND YURIKO AOKI,
          HIROTOSHI MORI AND EISAKU MIYOSHI
     PENNSYLVANIA STATE UNIVERSITY:
          TZVETELIN IORDANOV, CHET SWALINA, JONATHAN SKONE,
          SHARON HAMMES-SCHIFFER
     WASEDA UNIVERSITY:
          MASATO KOBAYASHI, TOMOKO AKAMA, TSUGUKI TOUMA,
          TAKESHI YOSHIKAWA, YASUHIRO IKABATA, HIROMI NAKAI
     NANJING UNIVERSITY: SHUHUA LI
     UNIVERSITY OF NEBRASKA:
          PEIFENG SU, DEJUN SI, NANDUN THELLAMUREGE, YALI WANG, HUI LI
     UNIVERSITY OF ZURICH: ROBERTO PEVERATI, KIM BALDRIDGE
     N. COPERNICUS UNIVERSITY AND JACKSON STATE UNIVERSITY:
          MARIA BARYSZ
     UNIVERSITY OF COPENHAGEN: CASPER STEINMANN
     TOKYO INSTITUTE OF TECHNOLOGY: HIROYA NAKATA
     NAGOYA UNIVERSITY: YOSHIO NISHIMOTO, STEPHAN IRLE

 EXECUTION OF GAMESS BEGUN Mon Jul 25 11:13:31 2016

            ECHO OF THE FIRST FEW INPUT CARDS -
 INPUT CARD> $BASIS                                                                         
 INPUT CARD>   GBASIS=N21 NGAUSS=3                                                          
 INPUT CARD> $END                                                                           
 INPUT CARD> $CONTRL                                                                        
 INPUT CARD>   SCFTYP=RHF                                                                   
 INPUT CARD>   RUNTYP=OPTIMIZE                                                              
 INPUT CARD>   LOCAL=RUEDNBRG                                                               
 INPUT CARD> $END                                                                           
 INPUT CARD> $SYSTEM                                                                        
 INPUT CARD>   MWORDS=125                                                                   
 INPUT CARD> $END                                                                           
 INPUT CARD> $STATPT                                                                        
 INPUT CARD>   OPTTOL=1.0E-4                                                                
 INPUT CARD> $END                                                                           
 INPUT CARD> $GUESS                                                                         
 INPUT CARD>   GUESS=HUCKEL                                                                 
 INPUT CARD> $END                                                                           
 INPUT CARD> $DATA                                                                          
 INPUT CARD>CH4                                                                             
 INPUT CARD>Cnv 3                                                                           
 INPUT CARD>                                                                                
 INPUT CARD> C           6.0   0.0000000000   0.0000000000   0.6979883327                   
 INPUT CARD> H           1.0   0.0000000000   0.0000000000   1.7842268879                   
 INPUT CARD> H           1.0   1.0241365916   0.0000000000   0.3359282598                   
 INPUT CARD> $END                                                                           
  125000000 WORDS OF MEMORY AVAILABLE

     BASIS OPTIONS
     -------------
     GBASIS=N21          IGAUSS=       3      POLAR=NONE    
     NDFUNC=       0     NFFUNC=       0     DIFFSP=       F
     NPFUNC=       0      DIFFS=       F     BASNAM=        


     RUN TITLE
     ---------
 CH4                                                                             

 THE POINT GROUP OF THE MOLECULE IS CNV     
 THE ORDER OF THE PRINCIPAL AXIS IS     3

 ATOM      ATOMIC                      COORDINATES (BOHR)
           CHARGE         X                   Y                   Z
 C           6.0     0.0000000000        0.0000000000        1.3190066914
 H           1.0     0.0000000000        0.0000000000        3.3716999181
 H           1.0    -0.9676687661        1.6760514677        0.6348123626
 H           1.0    -0.9676687661       -1.6760514677        0.6348123626
 H           1.0     1.9353375321        0.0000000000        0.6348123626

          INTERNUCLEAR DISTANCES (ANGS.)
          ------------------------------

                1 C          2 H          3 H          4 H          5 H     

   1 C       0.0000000    1.0862386 *  1.0862519 *  1.0862519 *  1.0862519 *
   2 H       1.0862386 *  0.0000000    1.7738164 *  1.7738164 *  1.7738164 *
   3 H       1.0862519 *  1.7738164 *  0.0000000    1.7738566 *  1.7738566 *
   4 H       1.0862519 *  1.7738164 *  1.7738566 *  0.0000000    1.7738566 *
   5 H       1.0862519 *  1.7738164 *  1.7738566 *  1.7738566 *  0.0000000  

  * ... LESS THAN  3.000


     ATOMIC BASIS SET
     ----------------
 THE CONTRACTED PRIMITIVE FUNCTIONS HAVE BEEN UNNORMALIZED
 THE CONTRACTED BASIS FUNCTIONS ARE NOW NORMALIZED TO UNITY

  SHELL TYPE  PRIMITIVE        EXPONENT          CONTRACTION COEFFICIENT(S)

 C         

      1   S       1           172.2560000    0.061766907377
      1   S       2            25.9109000    0.358794042852
      1   S       3             5.5333500    0.700713083689

      2   L       4             3.6649800   -0.395895162119    0.236459946619
      2   L       5             0.7705450    1.215834355681    0.860618805716

      3   L       6             0.1958570    1.000000000000    1.000000000000

 H         

      4   S       7             5.4471780    0.156284978695
      4   S       8             0.8245472    0.904690876670

      5   S       9             0.1831916    1.000000000000

 H         

     10   S      10             5.4471780    0.156284978695
     10   S      11             0.8245472    0.904690876670

     11   S      12             0.1831916    1.000000000000

 TOTAL NUMBER OF BASIS SET SHELLS             =   11
 NUMBER OF CARTESIAN GAUSSIAN BASIS FUNCTIONS =   17
 NUMBER OF ELECTRONS                          =   10
 CHARGE OF MOLECULE                           =    0
 SPIN MULTIPLICITY                            =    1
 NUMBER OF OCCUPIED ORBITALS (ALPHA)          =    5
 NUMBER OF OCCUPIED ORBITALS (BETA )          =    5
 TOTAL NUMBER OF ATOMS                        =    5
 THE NUCLEAR REPULSION ENERGY IS       13.4817900223

     $CONTRL OPTIONS
     ---------------
 SCFTYP=RHF          RUNTYP=OPTIMIZE     EXETYP=RUN     
 MPLEVL=       0     CITYP =NONE         CCTYP =NONE         VBTYP =NONE    
 DFTTYP=NONE         TDDFT =NONE    
 MULT  =       1     ICHARG=       0     NZVAR =       0     COORD =UNIQUE  
 PP    =NONE         RELWFN=NONE         LOCAL =RUEDNBRG     NUMGRD=       F
 ISPHER=      -1     NOSYM =       0     MAXIT =      30     UNITS =ANGS    
 PLTORB=       F     MOLPLT=       F     AIMPAC=       F     FRIEND=        
 NPRINT=       7     IREST =       0     GEOM  =INPUT   
 NORMF =       0     NORMP =       0     ITOL  =      20     ICUT  =       9
 INTTYP=BEST         GRDTYP=BEST         QMTTOL= 1.0E-06

     $SYSTEM OPTIONS
     ---------------
  REPLICATED MEMORY=   125000000 WORDS (ON EVERY NODE).
 DISTRIBUTED MEMDDI=           0 MILLION WORDS IN AGGREGATE,
 MEMDDI DISTRIBUTED OVER   1 PROCESSORS IS           0 WORDS/PROCESSOR.
 TOTAL MEMORY REQUESTED ON EACH PROCESSOR=   125000000 WORDS.
 TIMLIM=      525600.00 MINUTES, OR     365.0 DAYS.
 PARALL= F  BALTYP=  DLB     KDIAG=    0  COREFL= F
 MXSEQ2=     300 MXSEQ3=     150  mem10=         0

          ----------------
          PROPERTIES INPUT
          ----------------

     MOMENTS            FIELD           POTENTIAL          DENSITY
 IEMOM =       1   IEFLD =       0   IEPOT =       0   IEDEN =       0
 WHERE =COMASS     WHERE =NUCLEI     WHERE =NUCLEI     WHERE =NUCLEI  
 OUTPUT=BOTH       OUTPUT=BOTH       OUTPUT=BOTH       OUTPUT=BOTH    
 IEMINT=       0   IEFINT=       0                     IEDINT=       0
                                                       MORB  =       0
          EXTRAPOLATION IN EFFECT
          DIIS IN EFFECT
 ORBITAL PRINTING OPTION: NPREO=     1    17     2     1

     -------------------------------
     INTEGRAL TRANSFORMATION OPTIONS
     -------------------------------
     NWORD  =            0
     CUTOFF = 1.0E-09     MPTRAN =       0
     DIRTRF =       F     AOINTS =DUP     

          -----------------------------
          LOCALIZATION INPUT PARAMETERS
          -----------------------------
           LOCAL=RUEDNBRG      NOUTA=       1
          PRTLOC=       F      NOUTB=       0
          MAXLOC=     250     CVGLOC=1.00E-06
           FCORE=       T     SYMLOC=       F
          MOIDON=       F     EDCOMP=       F
          DIPDCM=       F      NPROT=       0
          QADDCM=       F     DEPRNT=       F
          POLNUM=       F     ORIENT=       F
          POLDYN=       F      VMTOL=1.50E-01
          NPRDTL=       2
          MOOUTA =      1

          ----------------------
          INTEGRAL INPUT OPTIONS
          ----------------------
 NOPK  =       1 NORDER=       0 SCHWRZ=       F

     ------------------------------------------
     THE POINT GROUP IS CNV, NAXIS= 3, ORDER= 6
     ------------------------------------------

     DIMENSIONS OF THE SYMMETRY SUBSPACES ARE
 A1  =    9     A2  =    0     E   =    4

 ..... DONE SETTING UP THE RUN .....
 STEP CPU TIME =     0.00 TOTAL CPU TIME =        0.0 (    0.0 MIN)
 TOTAL WALL CLOCK TIME=        0.0 SECONDS, CPU UTILIZATION IS   0.00%


          -----------------------------
          STATIONARY POINT LOCATION RUN
          -----------------------------

 OBTAINING INITIAL HESSIAN, HESS=GUESS   
 CARTESIAN COORDINATE OPTIMIZATION USING BADGER'S RULE FORCE CONSTANT GUESS

          PARAMETERS CONTROLLING GEOMETRY SEARCH ARE
          METHOD =QA                  UPHESS =BFGS    
          NNEG   =         0          NFRZ   =         0
          NSTEP  =        50          IFOLOW =         1
          HESS   =GUESS               RESTAR =         F
          IHREP  =         0          HSSEND =         F
          NPRT   =         0          NPUN   =         0
          OPTTOL = 1.000E-04          RMIN   = 1.500E-03
          RMAX   = 1.000E-01          RLIM   = 7.000E-02
          DXMAX  = 3.000E-01          PURIFY =         F
          MOVIE  =         F          TRUPD  =         T
          TRMAX  = 5.000E-01          TRMIN  = 5.000E-02
          ITBMAT =         5          STPT   =         F
          STSTEP = 1.000E-02          PROJCT=          T

 BEGINNING GEOMETRY SEARCH POINT NSERCH=   0 ...

 COORDINATES OF SYMMETRY UNIQUE ATOMS (ANGS)
   ATOM   CHARGE       X              Y              Z
 ------------------------------------------------------------
 C           6.0   0.0000000000   0.0000000000   0.6979883327
 H           1.0   0.0000000000   0.0000000000   1.7842268879
 H           1.0   1.0241365916   0.0000000000   0.3359282598
 COORDINATES OF ALL ATOMS ARE (ANGS)
   ATOM   CHARGE       X              Y              Z
 ------------------------------------------------------------
 C           6.0   0.0000000000   0.0000000000   0.6979883327
 H           1.0   0.0000000000   0.0000000000   1.7842268879
 H           1.0  -0.5120682958   0.8869283053   0.3359282598
 H           1.0  -0.5120682958  -0.8869283053   0.3359282598
 H           1.0   1.0241365916   0.0000000000   0.3359282598

          ********************
          1 ELECTRON INTEGRALS
          ********************
 ...... END OF ONE-ELECTRON INTEGRALS ......
 STEP CPU TIME =     0.00 TOTAL CPU TIME =        0.0 (    0.0 MIN)
 TOTAL WALL CLOCK TIME=        0.0 SECONDS, CPU UTILIZATION IS   0.00%

          -------------
          GUESS OPTIONS
          -------------
          GUESS =HUCKEL            NORB  =       0          NORDER=       0
          MIX   =       F          PRTMO =       F          PUNMO =       F
          TOLZ  = 1.0E-08          TOLE  = 1.0E-05
          SYMDEN=       F          PURIFY=       F

 INITIAL GUESS ORBITALS GENERATED BY HUCKEL   ROUTINE.
 HUCKEL GUESS REQUIRES      5845 WORDS.

 SYMMETRIES FOR INITIAL GUESS ORBITALS FOLLOW.   BOTH SET(S).
     5 ORBITALS ARE OCCUPIED (    1 CORE ORBITALS).
     2=?A1      3=?E       4=?E       5=?A1      6=?A1      7=?E       8=?E  
     9=?A1     10=A1      11=A1      12=A1      13=A1      14=E       15=E   
 ...... END OF INITIAL ORBITAL SELECTION ......
 STEP CPU TIME =     0.00 TOTAL CPU TIME =        0.0 (    0.0 MIN)
 TOTAL WALL CLOCK TIME=        0.0 SECONDS, CPU UTILIZATION IS   0.00%

                    ----------------------
                    AO INTEGRAL TECHNOLOGY
                    ----------------------
     S,P,L SHELL ROTATED AXIS INTEGRALS, REPROGRAMMED BY
        KAZUYA ISHIMURA (IMS) AND JOSE SIERRA (SYNSTAR).
     S,P,D,L SHELL ROTATED AXIS INTEGRALS PROGRAMMED BY
        KAZUYA ISHIMURA (INSTITUTE FOR MOLECULAR SCIENCE).
     S,P,D,F,G SHELL TO TOTAL QUARTET ANGULAR MOMENTUM SUM 5,
        ERIC PROGRAM BY GRAHAM FLETCHER (ELORET AND NASA ADVANCED
        SUPERCOMPUTING DIVISION, AMES RESEARCH CENTER).
     S,P,D,F,G,L SHELL GENERAL RYS QUADRATURE PROGRAMMED BY
        MICHEL DUPUIS (PACIFIC NORTHWEST NATIONAL LABORATORY).

          --------------------
          2 ELECTRON INTEGRALS
          --------------------

 THE -PK- OPTION IS OFF, THE INTEGRALS ARE NOT IN SUPERMATRIX FORM.
 STORING   15000 INTEGRALS/RECORD ON DISK, USING 12 BYTES/INTEGRAL.
 TWO ELECTRON INTEGRAL EVALUATION REQUIRES   89422 WORDS OF MEMORY.
 II,JST,KST,LST =  1  1  1  1 NREC =         1 INTLOC =    1
 II,JST,KST,LST =  2  1  1  1 NREC =         1 INTLOC =    2
 II,JST,KST,LST =  3  1  1  1 NREC =         1 INTLOC =   34
 II,JST,KST,LST =  4  1  1  1 NREC =         1 INTLOC =  214
 II,JST,KST,LST =  5  1  1  1 NREC =         1 INTLOC =  407
 II,JST,KST,LST =  6  1  1  1 NREC =         1 INTLOC =  678
 II,JST,KST,LST =  7  1  1  1 NREC =         1 INTLOC =  678
 II,JST,KST,LST =  8  1  1  1 NREC =         1 INTLOC =  678
 II,JST,KST,LST =  9  1  1  1 NREC =         1 INTLOC =  678
 II,JST,KST,LST = 10  1  1  1 NREC =         1 INTLOC =  678
 II,JST,KST,LST = 11  1  1  1 NREC =         1 INTLOC = 1434
 TOTAL NUMBER OF NONZERO TWO-ELECTRON INTEGRALS =                2735
          1 INTEGRAL RECORDS WERE STORED ON DISK FILE  8.
  ...... END OF TWO-ELECTRON INTEGRALS .....
 STEP CPU TIME =     0.02 TOTAL CPU TIME =        0.0 (    0.0 MIN)
 TOTAL WALL CLOCK TIME=        0.0 SECONDS, CPU UTILIZATION IS 100.00%

          --------------------------
                 RHF SCF CALCULATION
          --------------------------

     NUCLEAR ENERGY =        13.4817900223
     MAXIT =   30     NPUNCH=    2
     EXTRAP=T  DAMP=F  SHIFT=F  RSTRCT=F  DIIS=T  DEM=F  SOSCF=F
     DENSITY MATRIX CONV=  1.00E-05
     MEMORY REQUIRED FOR RHF ITERS=     32926 WORDS.
 RHFCL F

 ITER EX DEM     TOTAL ENERGY        E CHANGE  DENSITY CHANGE    DIIS ERROR
   1  0  0      -39.9089831121   -39.9089831121   0.391988533   0.617333760
          * * *   INITIATING DIIS PROCEDURE   * * *
   2  1  0      -39.9738618221    -0.0648787101   0.080509077   0.046216878
   3  2  0      -39.9765271944    -0.0026653723   0.021449504   0.022939242
   4  3  0      -39.9768228596    -0.0002956652   0.009181554   0.003269436
   5  4  0      -39.9768463242    -0.0000234647   0.001016664   0.000831043
   6  5  0      -39.9768467615    -0.0000004373   0.000066245   0.000027313
   7  6  0      -39.9768467639    -0.0000000024   0.000003321   0.000002069
   8  7  0      -39.9768467639    -0.0000000000   0.000000049   0.000000036

          -----------------
          DENSITY CONVERGED
          -----------------
     TIME TO FORM FOCK OPERATORS=       0.0 SECONDS (       0.0 SEC/ITER)
     TIME TO SOLVE SCF EQUATIONS=       0.0 SECONDS (       0.0 SEC/ITER)

 FINAL RHF ENERGY IS      -39.9768467639 AFTER   8 ITERATIONS
 ...... END OF RHF CALCULATION ......
 STEP CPU TIME =     0.00 TOTAL CPU TIME =        0.0 (    0.0 MIN)
 TOTAL WALL CLOCK TIME=        0.0 SECONDS, CPU UTILIZATION IS  66.67%

     ----------------------------------------------------------------
     PROPERTY VALUES FOR THE RHF   SELF-CONSISTENT FIELD WAVEFUNCTION
     ----------------------------------------------------------------

          -----------------
          ENERGY COMPONENTS
          -----------------

         WAVEFUNCTION NORMALIZATION =       1.0000000000

                ONE ELECTRON ENERGY =     -79.4724713634
                TWO ELECTRON ENERGY =      26.0138345772
           NUCLEAR REPULSION ENERGY =      13.4817900223
                                      ------------------
                       TOTAL ENERGY =     -39.9768467639

 ELECTRON-ELECTRON POTENTIAL ENERGY =      26.0138345772
  NUCLEUS-ELECTRON POTENTIAL ENERGY =    -119.3412632907
   NUCLEUS-NUCLEUS POTENTIAL ENERGY =      13.4817900223
                                      ------------------
             TOTAL POTENTIAL ENERGY =     -79.8456386912
               TOTAL KINETIC ENERGY =      39.8687919273
                 VIRIAL RATIO (V/T) =       2.0027102611

          ---------------------------------------
          MULLIKEN AND LOWDIN POPULATION ANALYSES
          ---------------------------------------

     ATOMIC MULLIKEN POPULATION IN EACH MOLECULAR ORBITAL

                      1          2          3          4          5

                  2.000000   2.000000   2.000000   2.000000   2.000000

    1             1.988850   1.500220   1.100899   1.100899   1.100898
    2             0.002788   0.124950   0.000000   0.000000   0.674318
    3             0.002787   0.124943   0.149850   0.449551   0.074928
    4             0.002787   0.124943   0.149850   0.449551   0.074928
    5             0.002787   0.124943   0.599401   0.000000   0.074928

               ----- POPULATIONS IN EACH AO -----
                             MULLIKEN      LOWDIN
              1  C  1  S      1.98736     1.97685
              2  C  1  S      0.35893     0.41493
              3  C  1  X      0.54441     0.50889
              4  C  1  Y      0.54441     0.50889
              5  C  1  Z      0.54441     0.50890
              6  C  1  S      1.14278     0.60036
              7  C  1  X      0.55649     0.62024
              8  C  1  Y      0.55649     0.62024
              9  C  1  Z      0.55649     0.62024
             10  H  2  S      0.46892     0.46352
             11  H  2  S      0.33314     0.44160
             12  H  3  S      0.46891     0.46351
             13  H  3  S      0.33315     0.44160
             14  H  4  S      0.46891     0.46351
             15  H  4  S      0.33315     0.44160
             16  H  5  S      0.46891     0.46351
             17  H  5  S      0.33315     0.44160

          ----- MULLIKEN ATOMIC OVERLAP POPULATIONS -----
          (OFF-DIAGONAL ELEMENTS NEED TO BE MULTIPLIED BY 2)

             1           2           3           4           5

    1    5.3099727
    2    0.3704466   0.5083979
    3    0.3704488  -0.0255961   0.5083913
    4    0.3704488  -0.0255961  -0.0255923   0.5083913
    5    0.3704488  -0.0255961  -0.0255923  -0.0255923   0.5083913

          TOTAL MULLIKEN AND LOWDIN ATOMIC POPULATIONS
       ATOM         MULL.POP.    CHARGE          LOW.POP.     CHARGE
    1 C             6.791766   -0.791766         6.379541   -0.379541
    2 H             0.802056    0.197944         0.905116    0.094884
    3 H             0.802059    0.197941         0.905114    0.094886
    4 H             0.802059    0.197941         0.905114    0.094886
    5 H             0.802059    0.197941         0.905114    0.094886

          -------------------------------
          BOND ORDER AND VALENCE ANALYSIS     BOND ORDER THRESHOLD=0.050
          -------------------------------

                   BOND                       BOND                       BOND
  ATOM PAIR DIST  ORDER      ATOM PAIR DIST  ORDER      ATOM PAIR DIST  ORDER
    1   2  1.086  0.934        1   3  1.086  0.934        1   4  1.086  0.934
    1   5  1.086  0.934

                       TOTAL       BONDED        FREE
      ATOM            VALENCE     VALENCE     VALENCE
    1 C                 3.735       3.735      -0.000
    2 H                 0.920       0.920       0.000
    3 H                 0.920       0.920      -0.000
    4 H                 0.920       0.920      -0.000
    5 H                 0.920       0.920      -0.000

          ---------------------
          ELECTROSTATIC MOMENTS
          ---------------------

 POINT   1           X           Y           Z (BOHR)    CHARGE
                -0.000000    0.000000    1.319014       -0.00 (A.U.)
         DX          DY          DZ         /D/  (DEBYE)
    -0.000000    0.000000    0.000040    0.000040
 ...... END OF PROPERTY EVALUATION ......
 STEP CPU TIME =     0.00 TOTAL CPU TIME =        0.0 (    0.0 MIN)
 TOTAL WALL CLOCK TIME=        0.0 SECONDS, CPU UTILIZATION IS  66.67%

 BEGINNING ONE ELECTRON GRADIENT...
 ..... END OF 1-ELECTRON GRADIENT ......
 STEP CPU TIME =     0.00 TOTAL CPU TIME =        0.0 (    0.0 MIN)
 TOTAL WALL CLOCK TIME=        0.0 SECONDS, CPU UTILIZATION IS  66.67%

          ----------------------
          GRADIENT OF THE ENERGY
          ----------------------
 THE COARSE/FINE SCHWARZ SCREENINGS SKIPPED            0/           0 BLOCKS.
 THE NUMBER OF GRADIENT INTEGRAL BLOCKS COMPUTED WAS       617
 ...... END OF 2-ELECTRON GRADIENT ......
 STEP CPU TIME =     0.00 TOTAL CPU TIME =        0.0 (    0.0 MIN)
 TOTAL WALL CLOCK TIME=        0.0 SECONDS, CPU UTILIZATION IS  66.67%

          NSERCH=  0     ENERGY=     -39.9768468

                                 -----------------------
                                 GRADIENT (HARTREE/BOHR)
                                 -----------------------
        ATOM     ZNUC       DE/DX         DE/DY         DE/DZ
 --------------------------------------------------------------
    1  C            6.0     0.0000000     0.0000000     0.0000005
    2  H            1.0     0.0000000     0.0000000     0.0024184
    3  H            1.0    -0.0011460     0.0019850    -0.0008063
    4  H            1.0    -0.0011460    -0.0019850    -0.0008063
    5  H            1.0     0.0022921     0.0000000    -0.0008063

          MAXIMUM GRADIENT = 0.0024184    RMS GRADIENT = 0.0012533

 NSERCH:   0  E=      -39.9768467639  GRAD. MAX=  0.0024184  R.M.S.=  0.0012533

          FORCE CONSTANT MATRIX NOT UPDATED --- TAKING FIRST STEP
          MIN SEARCH, CORRECT HESSIAN, TRYING PURE NR STEP
               NR STEP HAS LENGTH         =   0.009789
          RADIUS OF STEP TAKEN=   0.00979  CURRENT TRUST RADIUS=   0.30000

 BEGINNING GEOMETRY SEARCH POINT NSERCH=   1 ...

 COORDINATES OF SYMMETRY UNIQUE ATOMS (ANGS)
   ATOM   CHARGE       X              Y              Z
 ------------------------------------------------------------
 C           6.0  -0.0000000000  -0.0000000000   0.6980342725
 H           1.0   0.0000000000  -0.0000000000   1.7816840332
 H           1.0   1.0216677248   0.0000000000   0.3367605647
 COORDINATES OF ALL ATOMS ARE (ANGS)
   ATOM   CHARGE       X              Y              Z
 ------------------------------------------------------------
 C           6.0  -0.0000000000  -0.0000000000   0.6980342725
 H           1.0   0.0000000000  -0.0000000000   1.7816840332
 H           1.0  -0.5108338624   0.8847902039   0.3367605647
 H           1.0  -0.5108338624  -0.8847902039   0.3367605647
 H           1.0   1.0216677248   0.0000000000   0.3367605647

          INTERNUCLEAR DISTANCES (ANGS.)
          ------------------------------

                1 C          2 H          3 H          4 H          5 H     

   1 C       0.0000000    1.0836498 *  1.0836621 *  1.0836621 *  1.0836621 *
   2 H       1.0836498 *  0.0000000    1.7696352 *  1.7696352 *  1.7696352 *
   3 H       1.0836621 *  1.7696352 *  0.0000000    1.7695804 *  1.7695804 *
   4 H       1.0836621 *  1.7696352 *  1.7695804 *  0.0000000    1.7695804 *
   5 H       1.0836621 *  1.7696352 *  1.7695804 *  1.7695804 *  0.0000000  

  * ... LESS THAN  3.000

 ...... END OF ONE-ELECTRON INTEGRALS ......
 STEP CPU TIME =     0.00 TOTAL CPU TIME =        0.0 (    0.0 MIN)
 TOTAL WALL CLOCK TIME=        0.0 SECONDS, CPU UTILIZATION IS  66.67%
 TOTAL NUMBER OF NONZERO TWO-ELECTRON INTEGRALS =                2735
          1 INTEGRAL RECORDS WERE STORED ON DISK FILE  8.
  ...... END OF TWO-ELECTRON INTEGRALS .....
 STEP CPU TIME =     0.00 TOTAL CPU TIME =        0.0 (    0.0 MIN)
 TOTAL WALL CLOCK TIME=        0.0 SECONDS, CPU UTILIZATION IS  66.67%

          --------------------------
                 RHF SCF CALCULATION
          --------------------------
     DENSITY MATRIX CONV=  1.00E-05
 RHFCL F

 ITER EX DEM     TOTAL ENERGY        E CHANGE  DENSITY CHANGE    DIIS ERROR
          * * *   INITIATING DIIS PROCEDURE   * * *
   1  0  0      -39.9768707036   -39.9768707036   0.000935104   0.001777499
   2  1  0      -39.9768754810    -0.0000047775   0.000289270   0.000583206
   3  2  0      -39.9768759558    -0.0000004748   0.000044951   0.000101732
   4  3  0      -39.9768759741    -0.0000000182   0.000011355   0.000007404
   5  4  0      -39.9768759742    -0.0000000002   0.000002446   0.000001478
   6  5  0      -39.9768759742    -0.0000000000   0.000000144   0.000000135

          -----------------
          DENSITY CONVERGED
          -----------------
     TIME TO FORM FOCK OPERATORS=       0.0 SECONDS (       0.0 SEC/ITER)
     TIME TO SOLVE SCF EQUATIONS=       0.0 SECONDS (       0.0 SEC/ITER)

 FINAL RHF ENERGY IS      -39.9768759742 AFTER   6 ITERATIONS
 ...... END OF RHF CALCULATION ......
 STEP CPU TIME =     0.01 TOTAL CPU TIME =        0.0 (    0.0 MIN)
 TOTAL WALL CLOCK TIME=        0.0 SECONDS, CPU UTILIZATION IS  75.00%
 ..... END OF 1-ELECTRON GRADIENT ......
 STEP CPU TIME =     0.00 TOTAL CPU TIME =        0.0 (    0.0 MIN)
 TOTAL WALL CLOCK TIME=        0.0 SECONDS, CPU UTILIZATION IS  75.00%
 ...... END OF 2-ELECTRON GRADIENT ......
 STEP CPU TIME =     0.01 TOTAL CPU TIME =        0.0 (    0.0 MIN)
 TOTAL WALL CLOCK TIME=        0.0 SECONDS, CPU UTILIZATION IS 100.00%

          NSERCH=  1     ENERGY=     -39.9768760

                                 -----------------------
                                 GRADIENT (HARTREE/BOHR)
                                 -----------------------
        ATOM     ZNUC       DE/DX         DE/DY         DE/DZ
 --------------------------------------------------------------
    1  C            6.0     0.0000000     0.0000000     0.0000255
    2  H            1.0     0.0000000     0.0000000     0.0005502
    3  H            1.0    -0.0002600     0.0004503    -0.0001919
    4  H            1.0    -0.0002600    -0.0004503    -0.0001919
    5  H            1.0     0.0005200     0.0000000    -0.0001919

          MAXIMUM GRADIENT = 0.0005502    RMS GRADIENT = 0.0002858

 NSERCH:   1  E=      -39.9768759742  GRAD. MAX=  0.0005502  R.M.S.=  0.0002858

          HESSIAN UPDATED USING THE BFGS FORMULA
             ACTUAL ENERGY CHANGE WAS  -0.0000292103
          PREDICTED ENERGY CHANGE WAS  -0.0000237534 RATIO=  1.230
          MIN SEARCH, CORRECT HESSIAN, TRYING PURE NR STEP
               NR STEP HAS LENGTH         =   0.002938
          RADIUS OF STEP TAKEN=   0.00294  CURRENT TRUST RADIUS=   0.05000

 BEGINNING GEOMETRY SEARCH POINT NSERCH=   2 ...

 COORDINATES OF SYMMETRY UNIQUE ATOMS (ANGS)
   ATOM   CHARGE       X              Y              Z
 ------------------------------------------------------------
 C           6.0  -0.0000000000  -0.0000000000   0.6978839107
 H           1.0   0.0000000000  -0.0000000000   1.7808058776
 H           1.0   1.0210169850   0.0000000000   0.3371034039
 COORDINATES OF ALL ATOMS ARE (ANGS)
   ATOM   CHARGE       X              Y              Z
 ------------------------------------------------------------
 C           6.0  -0.0000000000  -0.0000000000   0.6978839107
 H           1.0   0.0000000000  -0.0000000000   1.7808058776
 H           1.0  -0.5105084925   0.8842266467   0.3371034039
 H           1.0  -0.5105084925  -0.8842266467   0.3371034039
 H           1.0   1.0210169850   0.0000000000   0.3371034039

          INTERNUCLEAR DISTANCES (ANGS.)
          ------------------------------

                1 C          2 H          3 H          4 H          5 H     

   1 C       0.0000000    1.0829220 *  1.0828842 *  1.0828842 *  1.0828842 *
   2 H       1.0829220 *  0.0000000    1.7682626 *  1.7682626 *  1.7682626 *
   3 H       1.0828842 *  1.7682626 *  0.0000000    1.7684533 *  1.7684533 *
   4 H       1.0828842 *  1.7682626 *  1.7684533 *  0.0000000    1.7684533 *
   5 H       1.0828842 *  1.7682626 *  1.7684533 *  1.7684533 *  0.0000000  

  * ... LESS THAN  3.000

 ...... END OF ONE-ELECTRON INTEGRALS ......
 STEP CPU TIME =     0.00 TOTAL CPU TIME =        0.0 (    0.0 MIN)
 TOTAL WALL CLOCK TIME=        0.0 SECONDS, CPU UTILIZATION IS 100.00%
 TOTAL NUMBER OF NONZERO TWO-ELECTRON INTEGRALS =                2735
          1 INTEGRAL RECORDS WERE STORED ON DISK FILE  8.
  ...... END OF TWO-ELECTRON INTEGRALS .....
 STEP CPU TIME =     0.00 TOTAL CPU TIME =        0.0 (    0.0 MIN)
 TOTAL WALL CLOCK TIME=        0.0 SECONDS, CPU UTILIZATION IS 100.00%

          --------------------------
                 RHF SCF CALCULATION
          --------------------------
     DENSITY MATRIX CONV=  1.00E-05
 RHFCL F

 ITER EX DEM     TOTAL ENERGY        E CHANGE  DENSITY CHANGE    DIIS ERROR
          * * *   INITIATING DIIS PROCEDURE   * * *
   1  0  0      -39.9768770773   -39.9768770773   0.000285706   0.000552781
   2  1  0      -39.9768775021    -0.0000004248   0.000092237   0.000182535
   3  2  0      -39.9768775439    -0.0000000418   0.000015250   0.000034608
   4  3  0      -39.9768775456    -0.0000000017   0.000003605   0.000002378
   5  4  0      -39.9768775456    -0.0000000000   0.000000942   0.000000461

          -----------------
          DENSITY CONVERGED
          -----------------
     TIME TO FORM FOCK OPERATORS=       0.0 SECONDS (       0.0 SEC/ITER)
     TIME TO SOLVE SCF EQUATIONS=       0.0 SECONDS (       0.0 SEC/ITER)

 FINAL RHF ENERGY IS      -39.9768775456 AFTER   5 ITERATIONS
 ...... END OF RHF CALCULATION ......
 STEP CPU TIME =     0.00 TOTAL CPU TIME =        0.0 (    0.0 MIN)
 TOTAL WALL CLOCK TIME=        0.0 SECONDS, CPU UTILIZATION IS 100.00%
 ..... END OF 1-ELECTRON GRADIENT ......
 STEP CPU TIME =     0.00 TOTAL CPU TIME =        0.0 (    0.0 MIN)
 TOTAL WALL CLOCK TIME=        0.0 SECONDS, CPU UTILIZATION IS 100.00%
 ...... END OF 2-ELECTRON GRADIENT ......
 STEP CPU TIME =     0.00 TOTAL CPU TIME =        0.0 (    0.0 MIN)
 TOTAL WALL CLOCK TIME=        0.0 SECONDS, CPU UTILIZATION IS 100.00%

          NSERCH=  2     ENERGY=     -39.9768775

                                 -----------------------
                                 GRADIENT (HARTREE/BOHR)
                                 -----------------------
        ATOM     ZNUC       DE/DX         DE/DY         DE/DZ
 --------------------------------------------------------------
    1  C            6.0     0.0000000     0.0000000    -0.0000840
    2  H            1.0     0.0000000     0.0000000     0.0000021
    3  H            1.0    -0.0000003     0.0000006     0.0000273
    4  H            1.0    -0.0000003    -0.0000006     0.0000273
    5  H            1.0     0.0000007     0.0000000     0.0000273

          MAXIMUM GRADIENT = 0.0000840    RMS GRADIENT = 0.0000249

 NSERCH:   2  E=      -39.9768775456  GRAD. MAX=  0.0000840  R.M.S.=  0.0000249


      ***** EQUILIBRIUM GEOMETRY LOCATED *****
 COORDINATES OF SYMMETRY UNIQUE ATOMS (ANGS)
   ATOM   CHARGE       X              Y              Z
 ------------------------------------------------------------
 C           6.0  -0.0000000000  -0.0000000000   0.6978839107
 H           1.0   0.0000000000  -0.0000000000   1.7808058776
 H           1.0   1.0210169850   0.0000000000   0.3371034039
 COORDINATES OF ALL ATOMS ARE (ANGS)
   ATOM   CHARGE       X              Y              Z
 ------------------------------------------------------------
 C           6.0  -0.0000000000  -0.0000000000   0.6978839107
 H           1.0   0.0000000000  -0.0000000000   1.7808058776
 H           1.0  -0.5105084925   0.8842266467   0.3371034039
 H           1.0  -0.5105084925  -0.8842266467   0.3371034039
 H           1.0   1.0210169850   0.0000000000   0.3371034039

          INTERNUCLEAR DISTANCES (ANGS.)
          ------------------------------

                1 C          2 H          3 H          4 H          5 H     

   1 C       0.0000000    1.0829220 *  1.0828842 *  1.0828842 *  1.0828842 *
   2 H       1.0829220 *  0.0000000    1.7682626 *  1.7682626 *  1.7682626 *
   3 H       1.0828842 *  1.7682626 *  0.0000000    1.7684533 *  1.7684533 *
   4 H       1.0828842 *  1.7682626 *  1.7684533 *  0.0000000    1.7684533 *
   5 H       1.0828842 *  1.7682626 *  1.7684533 *  1.7684533 *  0.0000000  

  * ... LESS THAN  3.000


          NUCLEAR ENERGY    =       13.5235580837
          ELECTRONIC ENERGY =      -53.5004356293
          TOTAL ENERGY      =      -39.9768775456

          ------------------
          MOLECULAR ORBITALS
          ------------------

                      1          2          3          4          5
                  -11.1445    -0.9459    -0.5449    -0.5449    -0.5448
                     A1         A1         E          E          A1  
    1  C  1  S    0.987093  -0.208906   0.000000   0.000000   0.000020
    2  C  1  S    0.099358   0.202442   0.000000   0.000000  -0.000026
    3  C  1  X    0.000000   0.000000  -0.374470   0.000000   0.000000
    4  C  1  Y    0.000000   0.000000   0.000000  -0.374470   0.000000
    5  C  1  Z    0.000001   0.000028   0.000000   0.000000   0.374463
    6  C  1  S   -0.072303   0.613408   0.000000   0.000000  -0.000044
    7  C  1  X    0.000000   0.000000  -0.310002   0.000000   0.000000
    8  C  1  Y    0.000000   0.000000   0.000000  -0.310002   0.000000
    9  C  1  Z   -0.000006   0.000044   0.000000   0.000000   0.310014
   10  H  2  S   -0.000556   0.122967   0.000000   0.000000   0.275794
   11  H  2  S    0.014109   0.021799   0.000000   0.000000   0.258183
   12  H  3  S   -0.000557   0.122968   0.130014  -0.225191  -0.091931
   13  H  3  S    0.014107   0.021811   0.121678  -0.210752  -0.086064
   14  H  4  S   -0.000557   0.122968   0.130014   0.225191  -0.091931
   15  H  4  S    0.014107   0.021811   0.121678   0.210752  -0.086064
   16  H  5  S   -0.000557   0.122968  -0.260028   0.000000  -0.091931
   17  H  5  S    0.014107   0.021811  -0.243356   0.000000  -0.086064

                      6          7          8          9         10
                    0.2967     0.3526     0.3526     0.3526     0.9231
                     A1         A1         E          E          A1  
    1  C  1  S    0.179056   0.000003   0.000000   0.000000   0.000003
    2  C  1  S   -0.041699  -0.000013   0.000000   0.000000   0.000094
    3  C  1  X    0.000000   0.000000  -0.268507   0.000000   0.000000
    4  C  1  Y    0.000000   0.000000   0.000000  -0.268507   0.000000
    5  C  1  Z   -0.000020   0.268505   0.000000   0.000000  -0.749023
    6  C  1  S   -2.531551   0.000060   0.000000   0.000000   0.000001
    7  C  1  X    0.000000   0.000000  -1.432648   0.000000   0.000000
    8  C  1  Y    0.000000   0.000000   0.000000  -1.432648   0.000000
    9  C  1  Z   -0.000197   1.432309   0.000000   0.000000   1.253511
   10  H  2  S   -0.005223  -0.082918   0.000000   0.000000  -0.652306
   11  H  2  S    0.955558  -1.813008   0.000000   0.000000   0.015680
   12  H  3  S   -0.005199   0.027666  -0.039068   0.067668   0.217560
   13  H  3  S    0.955583   0.604256  -0.854787   1.480535  -0.005364
   14  H  4  S   -0.005199   0.027666  -0.039068  -0.067668   0.217560
   15  H  4  S    0.955583   0.604256  -0.854787  -1.480535  -0.005364
   16  H  5  S   -0.005199   0.027666   0.078136   0.000000   0.217560
   17  H  5  S    0.955583   0.604256   1.709574   0.000000  -0.005364

                     11         12         13         14         15
                    0.9231     0.9231     1.3333     1.3589     1.3590
                     E          E          A1         A1         E   
    1  C  1  S    0.000000   0.000000   0.129926   0.000160   0.000000
    2  C  1  S    0.000000   0.000000  -0.137897  -0.000271   0.000000
    3  C  1  X    0.749030   0.000000   0.000000   0.000000  -0.862610
    4  C  1  Y    0.000000   0.749030   0.000000   0.000000   0.000000
    5  C  1  Z    0.000000   0.000000   0.001188  -0.862578   0.000000
    6  C  1  S    0.000000   0.000000  -0.318569  -0.000190   0.000000
    7  C  1  X   -1.254024   0.000000   0.000000   0.000000   0.981306
    8  C  1  Y    0.000000  -1.254024   0.000000   0.000000   0.000000
    9  C  1  Z    0.000000   0.000000  -0.001730   0.981337   0.000000
   10  H  2  S    0.000000   0.000000   0.670208   0.936249   0.000000
   11  H  2  S    0.000000   0.000000  -0.246200  -1.414537   0.000000
   12  H  3  S   -0.307540   0.532675   0.671615  -0.310961  -0.440977
   13  H  3  S    0.007182  -0.012439  -0.248900   0.471031   0.666614
   14  H  4  S   -0.307540  -0.532675   0.671615  -0.310961  -0.440977
   15  H  4  S    0.007182   0.012439  -0.248900   0.471031   0.666614
   16  H  5  S    0.615080   0.000000   0.671615  -0.310961   0.881955
   17  H  5  S   -0.014364   0.000000  -0.248900   0.471031  -1.333228

     ----------------------------------------------------------------
     PROPERTY VALUES FOR THE RHF   SELF-CONSISTENT FIELD WAVEFUNCTION
     ----------------------------------------------------------------

          -----------------
          ENERGY COMPONENTS
          -----------------

         WAVEFUNCTION NORMALIZATION =       1.0000000000

                ONE ELECTRON ENERGY =     -79.5511497245
                TWO ELECTRON ENERGY =      26.0507140951
           NUCLEAR REPULSION ENERGY =      13.5235580837
                                      ------------------
                       TOTAL ENERGY =     -39.9768775456

 ELECTRON-ELECTRON POTENTIAL ENERGY =      26.0507140951
  NUCLEUS-ELECTRON POTENTIAL ENERGY =    -119.4390972315
   NUCLEUS-NUCLEUS POTENTIAL ENERGY =      13.5235580837
                                      ------------------
             TOTAL POTENTIAL ENERGY =     -79.8648250526
               TOTAL KINETIC ENERGY =      39.8879475070
                 VIRIAL RATIO (V/T) =       2.0022294965

          ---------------------------------------
          MULLIKEN AND LOWDIN POPULATION ANALYSES
          ---------------------------------------

     ATOMIC MULLIKEN POPULATION IN EACH MOLECULAR ORBITAL

                      1          2          3          4          5

                  2.000000   2.000000   2.000000   2.000000   2.000000

    1             1.988735   1.500096   1.101723   1.101723   1.101704
    2             0.002816   0.124970   0.000000   0.000000   0.673733
    3             0.002816   0.124978   0.149713   0.449139   0.074854
    4             0.002816   0.124978   0.149713   0.449139   0.074854
    5             0.002816   0.124978   0.598851   0.000000   0.074854

               ----- POPULATIONS IN EACH AO -----
                             MULLIKEN      LOWDIN
              1  C  1  S      1.98738     1.97689
              2  C  1  S      0.35953     0.41494
              3  C  1  X      0.54611     0.51048
              4  C  1  Y      0.54611     0.51048
              5  C  1  Z      0.54608     0.51046
              6  C  1  S      1.14192     0.59803
              7  C  1  X      0.55561     0.61943
              8  C  1  Y      0.55561     0.61943
              9  C  1  Z      0.55562     0.61947
             10  H  2  S      0.47050     0.46492
             11  H  2  S      0.33101     0.44018
             12  H  3  S      0.47052     0.46492
             13  H  3  S      0.33098     0.44017
             14  H  4  S      0.47052     0.46492
             15  H  4  S      0.33098     0.44017
             16  H  5  S      0.47052     0.46492
             17  H  5  S      0.33098     0.44017

          ----- MULLIKEN ATOMIC OVERLAP POPULATIONS -----
          (OFF-DIAGONAL ELEMENTS NEED TO BE MULTIPLIED BY 2)

             1           2           3           4           5

    1    5.3106542
    2    0.3708175   0.5079034
    3    0.3708363  -0.0257337   0.5078188
    4    0.3708363  -0.0257337  -0.0257108   0.5078188
    5    0.3708363  -0.0257337  -0.0257108  -0.0257108   0.5078188

          TOTAL MULLIKEN AND LOWDIN ATOMIC POPULATIONS
       ATOM         MULL.POP.    CHARGE          LOW.POP.     CHARGE
    1 C             6.793981   -0.793981         6.379616   -0.379616
    2 H             0.801520    0.198480         0.905108    0.094892
    3 H             0.801500    0.198500         0.905092    0.094908
    4 H             0.801500    0.198500         0.905092    0.094908
    5 H             0.801500    0.198500         0.905092    0.094908

          -------------------------------
          BOND ORDER AND VALENCE ANALYSIS     BOND ORDER THRESHOLD=0.050
          -------------------------------

                   BOND                       BOND                       BOND
  ATOM PAIR DIST  ORDER      ATOM PAIR DIST  ORDER      ATOM PAIR DIST  ORDER
    1   2  1.083  0.934        1   3  1.083  0.934        1   4  1.083  0.934
    1   5  1.083  0.934

                       TOTAL       BONDED        FREE
      ATOM            VALENCE     VALENCE     VALENCE
    1 C                 3.735       3.735      -0.000
    2 H                 0.920       0.920      -0.000
    3 H                 0.920       0.920      -0.000
    4 H                 0.920       0.920      -0.000
    5 H                 0.920       0.920      -0.000

          ---------------------
          ELECTROSTATIC MOMENTS
          ---------------------

 POINT   1           X           Y           Z (BOHR)    CHARGE
                -0.000000    0.000000    1.318878       -0.00 (A.U.)
         DX          DY          DZ         /D/  (DEBYE)
    -0.000000    0.000000    0.000198    0.000198
 ...... END OF PROPERTY EVALUATION ......
 STEP CPU TIME =     0.00 TOTAL CPU TIME =        0.0 (    0.0 MIN)
 TOTAL WALL CLOCK TIME=        0.0 SECONDS, CPU UTILIZATION IS  80.00%
  $VIB   
          IVIB=   0 IATOM=   0 ICOORD=   0 E=      -39.9768775456
  0.000000000E+00 0.000000000E+00-8.404473047E-05 0.000000000E+00 0.000000000E+00
  2.077771010E-06-3.335913897E-07 5.777972359E-07 2.732231977E-05-3.335913897E-07
 -5.777972359E-07 2.732231977E-05 6.671827793E-07 0.000000000E+00 2.732231977E-05
 -2.821927136E-15 1.061770746E-14 1.984381817E-04
 ......END OF GEOMETRY SEARCH......
 STEP CPU TIME =     0.00 TOTAL CPU TIME =        0.0 (    0.0 MIN)
 TOTAL WALL CLOCK TIME=        0.0 SECONDS, CPU UTILIZATION IS  80.00%

          ---------------------------------------
          EDMISTON-RUEDENBERG ENERGY LOCALIZATION
          ---------------------------------------
          C.EDMISTON AND K.RUEDENBERG, REV.MOD.PHYS. 35, 457-465 (1963)

          --------------------
          2 ELECTRON INTEGRALS
          --------------------

 THE -PK- OPTION IS OFF, THE INTEGRALS ARE NOT IN SUPERMATRIX FORM.
 STORING   15000 INTEGRALS/RECORD ON DISK, USING 12 BYTES/INTEGRAL.
 TWO ELECTRON INTEGRAL EVALUATION REQUIRES   89422 WORDS OF MEMORY.
 II,JST,KST,LST =  1  1  1  1 NREC =         1 INTLOC =    1
 II,JST,KST,LST =  2  1  1  1 NREC =         1 INTLOC =    2
 II,JST,KST,LST =  3  1  1  1 NREC =         1 INTLOC =   34
 II,JST,KST,LST =  4  1  1  1 NREC =         1 INTLOC =  214
 II,JST,KST,LST =  5  1  1  1 NREC =         1 INTLOC =  407
 II,JST,KST,LST =  6  1  1  1 NREC =         1 INTLOC =  678
 II,JST,KST,LST =  7  1  1  1 NREC =         1 INTLOC = 1548
 II,JST,KST,LST =  8  1  1  1 NREC =         1 INTLOC = 2653
 II,JST,KST,LST =  9  1  1  1 NREC =         1 INTLOC = 4014
 II,JST,KST,LST = 10  1  1  1 NREC =         1 INTLOC = 5691
 II,JST,KST,LST = 11  1  1  1 NREC =         1 INTLOC = 7447
 TOTAL NUMBER OF NONZERO TWO-ELECTRON INTEGRALS =                9549
          1 INTEGRAL RECORDS WERE STORED ON DISK FILE  8.
  ...... END OF TWO-ELECTRON INTEGRALS .....
 STEP CPU TIME =     0.00 TOTAL CPU TIME =        0.0 (    0.0 MIN)
 TOTAL WALL CLOCK TIME=        0.0 SECONDS, CPU UTILIZATION IS  80.00%

     --------------------------------------------
     PARTIAL TWO ELECTRON INTEGRAL TRANSFORMATION
     --------------------------------------------

 NUMBER OF CORE MOLECULAR ORBITALS     =    1
 NUMBER OF OCCUPIED MOLECULAR ORBITALS =    5
 TOTAL NUMBER OF MOLECULAR ORBITALS    =    5
 TOTAL NUMBER OF ATOMIC ORBITALS       =   17
 THRESHOLD FOR KEEPING TRANSFORMED 2E- INTEGRALS = 1.000E-09
 AO INTEGRALS WILL BE READ IN FROM DISK...

 PLAN A: REQUIREMENTS FOR FULLY IN-MEMORY TRANSFORMATION:
 # OF WORDS AVAILABLE =            124999376
 # OF WORDS NEEDED    =                71885

 CHOOSING IN MEMORY PARTIAL TRANSFORMATION...
 TOTAL NUMBER OF TRANSFORMED 2E- INTEGRALS KEPT =           28
 ... END OF INTEGRAL TRANSFORMATION ...
 STEP CPU TIME =     0.00 TOTAL CPU TIME =        0.0 (    0.0 MIN)
 TOTAL WALL CLOCK TIME=        0.0 SECONDS, CPU UTILIZATION IS  80.00%

          ---------------------------------------
          EDMISTON-RUEDENBERG ENERGY LOCALIZATION
          ---------------------------------------
          C.EDMISTON AND K.RUEDENBERG, REV.MOD.PHYS. 35, 457-465 (1963)

 THIS LOCALIZATION REQUIRES     31018 WORDS OF MEMORY.
 THIS LOCALIZATION HAS   5 ORBITALS, OF WHICH   1 ARE FROZEN.

 INITIAL LOCALIZATION SUMS ARE
     DIAGONAL SUM D=        2.0914891340
      COULOMB SUM C=        7.5818196104
     EXCHANGE SUM X=        2.9236867212

 BEGINNING 2X2 JACOBI ROTATIONS...
          5 PAIR ROTATIONS WHEN CONVERGED TO    1.00E-01
          4 PAIR ROTATIONS WHEN CONVERGED TO    1.00E-02
          5 PAIR ROTATIONS WHEN CONVERGED TO    1.00E-03
          5 PAIR ROTATIONS WHEN CONVERGED TO    1.00E-04
          5 PAIR ROTATIONS WHEN CONVERGED TO    1.00E-05
          5 PAIR ROTATIONS WHEN CONVERGED TO    1.00E-06
         29 TOTAL PAIR ROTATIONS REQUIRED TO CONVERGE TO    1.00E-06

   FINAL LOCALIZATION SUMS ARE
     DIAGONAL SUM D=        2.7064564562
      COULOMB SUM C=        7.5818196104
     EXCHANGE SUM X=        2.9236867212
 FOCK OPERATOR FOR THE LOCALIZED ORBITALS IS

             1           2           3           4

    1   -0.6451107
    2    0.1002475  -0.6451106
    3   -0.1002475   0.1002475  -0.6451107
    4   -0.1002749   0.1002748  -0.1002749  -0.6450734

 EDMISTON-RUEDENBERG ENERGY LOCALIZED ORBITALS

                      1          2          3          4          5

    1  C  1  S    0.987093  -0.104458   0.104458  -0.104458  -0.104439
    2  C  1  S    0.099358   0.101228  -0.101228   0.101228   0.101202
    3  C  1  X    0.000000  -0.152877  -0.305753  -0.152877   0.000000
    4  C  1  Y    0.000000   0.264790   0.000000  -0.264790   0.000000
    5  C  1  Z    0.000001  -0.108088   0.108088  -0.108088   0.324305
    6  C  1  S   -0.072303   0.306713  -0.306713   0.306713   0.306676
    7  C  1  X    0.000000  -0.126558  -0.253116  -0.126558   0.000000
    8  C  1  Y    0.000000   0.219205   0.000000  -0.219205   0.000000
    9  C  1  Z   -0.000006  -0.089474   0.089474  -0.089474   0.268499
   10  H  2  S   -0.000556  -0.018134   0.018135  -0.018134   0.300328
   11  H  2  S    0.014109  -0.063634   0.063634  -0.063634   0.234490
   12  H  3  S   -0.000557   0.300334   0.018133  -0.018133  -0.018127
   13  H  3  S    0.014107   0.234449   0.063599  -0.063599  -0.063627
   14  H  4  S   -0.000557  -0.018133   0.018133   0.300334  -0.018127
   15  H  4  S    0.014107  -0.063599   0.063599   0.234449  -0.063627
   16  H  5  S   -0.000557  -0.018133  -0.300334  -0.018134  -0.018127
   17  H  5  S    0.014107  -0.063599  -0.234449  -0.063599  -0.063627
 ... DONE WITH ENERGY LOCALIZATION ...
 STEP CPU TIME =     0.01 TOTAL CPU TIME =        0.0 (    0.0 MIN)
 TOTAL WALL CLOCK TIME=        0.0 SECONDS, CPU UTILIZATION IS 100.00%
               580000  WORDS OF DYNAMIC MEMORY USED
 EXECUTION OF GAMESS TERMINATED NORMALLY Mon Jul 25 11:13:31 2016
 DDI: 263640 bytes (0.3 MB / 0 MWords) used by master data server.

 ----------------------------------------
 CPU timing information for all processes
 ========================================
 0: 0.40 + 0.12 = 0.53
 ----------------------------------------
 ddikick.x: exited gracefully.
