----- GAMESS execution script 'rungms' -----
This job is running on host adm-106348-mac.local
under operating system Darwin at Mon Jul 25 11:17:40 CEST 2016
Available scratch disk space (Kbyte units) at beginning of the job is
Filesystem 1024-blocks      Used Available Capacity  iused    ifree %iused  Mounted on
/dev/disk1   487219328 173769376 313193952    36% 43506342 78298488   36%   /
GAMESS temporary binary files will be written to /var/folders/4f/yfn5hhsj5qs66zvp9j1ymsshjvstmp/T/
GAMESS supplementary output files will be written to /var/folders/4f/yfn5hhsj5qs66zvp9j1ymsshjvstmp/T/
Copying input file 6-31G.inp to your run's scratch directory...
The generated host list is
localhost

 Distributed Data Interface kickoff program.
 Initiating 1 compute processes on 1 nodes to run the following command:
 /Users/css/Development/fortran/gamess/gamess.00.x 6-31G 

          ******************************************************
          *         GAMESS VERSION =  5 DEC 2014 (R1)          *
          *             FROM IOWA STATE UNIVERSITY             *
          * M.W.SCHMIDT, K.K.BALDRIDGE, J.A.BOATZ, S.T.ELBERT, *
          *   M.S.GORDON, J.H.JENSEN, S.KOSEKI, N.MATSUNAGA,   *
          *          K.A.NGUYEN, S.J.SU, T.L.WINDUS,           *
          *       TOGETHER WITH M.DUPUIS, J.A.MONTGOMERY       *
          *         J.COMPUT.CHEM.  14, 1347-1363(1993)        *
          **************** 64 BIT APPLE VERSION ****************

  SINCE 1993, STUDENTS AND POSTDOCS WORKING AT IOWA STATE UNIVERSITY
  AND ALSO IN THEIR VARIOUS JOBS AFTER LEAVING ISU HAVE MADE IMPORTANT
  CONTRIBUTIONS TO THE CODE:
     IVANA ADAMOVIC, CHRISTINE AIKENS, YURI ALEXEEV, POOJA ARORA,
     ANDREY ASADCHEV, ROB BELL, PRADIPTA BANDYOPADHYAY, JONATHAN BENTZ,
     BRETT BODE, KURT BRORSEN, CALEB CARLIN, GALINA CHABAN, WEI CHEN,
     CHEOL HO CHOI, PAUL DAY, ALBERT DEFUSCO, NUWAN DESILVA, TIM DUDLEY,
     DMITRI FEDOROV, GRAHAM FLETCHER, MARK FREITAG, KURT GLAESEMANN,
     DAN KEMP, GRANT MERRILL, NORIYUKI MINEZAWA, JONATHAN MULLIN,
     TAKESHI NAGATA, SEAN NEDD, HEATHER NETZLOFF, BOSILJKA NJEGIC, RYAN OLSON,
     MIKE PAK, SPENCER PRUITT, LUKE ROSKOP, JIM SHOEMAKER, LYUDMILA SLIPCHENKO,
     TONY SMITH, SAROM SOK, JIE SONG, TETSUYA TAKETSUGU, SIMON WEBB,
     PENG XU, SOOHAENG YOO, FEDERICO ZAHARIEV

  ADDITIONAL CODE HAS BEEN PROVIDED BY COLLABORATORS IN OTHER GROUPS:
     IOWA STATE UNIVERSITY:
          JOE IVANIC, AARON WEST, LAIMUTIS BYTAUTAS, KLAUS RUEDENBERG
     UNIVERSITY OF TOKYO: KIMIHIKO HIRAO, TAKAHITO NAKAJIMA,
          TAKAO TSUNEDA, MUNEAKI KAMIYA, SUSUMU YANAGISAWA,
          KIYOSHI YAGI, MAHITO CHIBA, SEIKEN TOKURA, NAOAKI KAWAKAMI
     UNIVERSITY OF AARHUS: FRANK JENSEN
     UNIVERSITY OF IOWA: VISVALDAS KAIRYS, HUI LI
     NATIONAL INST. OF STANDARDS AND TECHNOLOGY: WALT STEVENS, DAVID GARMER
     UNIVERSITY OF PISA: BENEDETTA MENNUCCI, JACOPO TOMASI
     UNIVERSITY OF MEMPHIS: HENRY KURTZ, PRAKASHAN KORAMBATH
     UNIVERSITY OF ALBERTA: TOBY ZENG, MARIUSZ KLOBUKOWSKI
     UNIVERSITY OF NEW ENGLAND: MARK SPACKMAN
     MIE UNIVERSITY: HIROAKI UMEDA
     NAT. INST. OF ADVANCED INDUSTRIAL SCIENCE AND TECHNOLOGY: KAZUO KITAURA
     MICHIGAN STATE UNIVERSITY:
          KAROL KOWALSKI, MARTA WLOCH, JEFFREY GOUR, JESSE LUTZ,
          WEI LI, PIOTR PIECUCH
     UNIVERSITY OF SILESIA: MONIKA MUSIAL, STANISLAW KUCHARSKI
     FACULTES UNIVERSITAIRES NOTRE-DAME DE LA PAIX:
          OLIVIER QUINET, BENOIT CHAMPAGNE
     UNIVERSITY OF CALIFORNIA - SANTA BARBARA: BERNARD KIRTMAN
     INSTITUTE FOR MOLECULAR SCIENCE:
          KAZUYA ISHIMURA, MICHIO KATOUDA, AND SHIGERU NAGASE
     UNIVERSITY OF NOTRE DAME: ANNA POMOGAEVA, DAN CHIPMAN
     KYUSHU UNIVERSITY:
          HARUYUKI NAKANO,
          FENG LONG GU, JACEK KORCHOWIEC, MARCIN MAKOWSKI, AND YURIKO AOKI,
          HIROTOSHI MORI AND EISAKU MIYOSHI
     PENNSYLVANIA STATE UNIVERSITY:
          TZVETELIN IORDANOV, CHET SWALINA, JONATHAN SKONE,
          SHARON HAMMES-SCHIFFER
     WASEDA UNIVERSITY:
          MASATO KOBAYASHI, TOMOKO AKAMA, TSUGUKI TOUMA,
          TAKESHI YOSHIKAWA, YASUHIRO IKABATA, HIROMI NAKAI
     NANJING UNIVERSITY: SHUHUA LI
     UNIVERSITY OF NEBRASKA:
          PEIFENG SU, DEJUN SI, NANDUN THELLAMUREGE, YALI WANG, HUI LI
     UNIVERSITY OF ZURICH: ROBERTO PEVERATI, KIM BALDRIDGE
     N. COPERNICUS UNIVERSITY AND JACKSON STATE UNIVERSITY:
          MARIA BARYSZ
     UNIVERSITY OF COPENHAGEN: CASPER STEINMANN
     TOKYO INSTITUTE OF TECHNOLOGY: HIROYA NAKATA
     NAGOYA UNIVERSITY: YOSHIO NISHIMOTO, STEPHAN IRLE

 EXECUTION OF GAMESS BEGUN Mon Jul 25 11:17:40 2016

            ECHO OF THE FIRST FEW INPUT CARDS -
 INPUT CARD> $BASIS                                                                         
 INPUT CARD>   GBASIS=N31 NGAUSS=6                                                          
 INPUT CARD> $END                                                                           
 INPUT CARD> $CONTRL                                                                        
 INPUT CARD>   SCFTYP=RHF                                                                   
 INPUT CARD>   RUNTYP=OPTIMIZE                                                              
 INPUT CARD>   LOCAL=RUEDNBRG                                                               
 INPUT CARD> $END                                                                           
 INPUT CARD> $SYSTEM                                                                        
 INPUT CARD>   MWORDS=125                                                                   
 INPUT CARD> $END                                                                           
 INPUT CARD> $STATPT                                                                        
 INPUT CARD>   OPTTOL=1.0E-4                                                                
 INPUT CARD> $END                                                                           
 INPUT CARD> $GUESS                                                                         
 INPUT CARD>   GUESS=HUCKEL                                                                 
 INPUT CARD> $END                                                                           
 INPUT CARD> $DATA                                                                          
 INPUT CARD>CH4                                                                             
 INPUT CARD>Cnv 3                                                                           
 INPUT CARD>                                                                                
 INPUT CARD> C           6.0   0.0000000000   0.0000000000   0.6979883327                   
 INPUT CARD> H           1.0   0.0000000000   0.0000000000   1.7842268879                   
 INPUT CARD> H           1.0   1.0241365916   0.0000000000   0.3359282598                   
 INPUT CARD> $END                                                                           
  125000000 WORDS OF MEMORY AVAILABLE

     BASIS OPTIONS
     -------------
     GBASIS=N31          IGAUSS=       6      POLAR=NONE    
     NDFUNC=       0     NFFUNC=       0     DIFFSP=       F
     NPFUNC=       0      DIFFS=       F     BASNAM=        


     RUN TITLE
     ---------
 CH4                                                                             

 THE POINT GROUP OF THE MOLECULE IS CNV     
 THE ORDER OF THE PRINCIPAL AXIS IS     3

 ATOM      ATOMIC                      COORDINATES (BOHR)
           CHARGE         X                   Y                   Z
 C           6.0     0.0000000000        0.0000000000        1.3190066914
 H           1.0     0.0000000000        0.0000000000        3.3716999181
 H           1.0    -0.9676687661        1.6760514677        0.6348123626
 H           1.0    -0.9676687661       -1.6760514677        0.6348123626
 H           1.0     1.9353375321        0.0000000000        0.6348123626

          INTERNUCLEAR DISTANCES (ANGS.)
          ------------------------------

                1 C          2 H          3 H          4 H          5 H     

   1 C       0.0000000    1.0862386 *  1.0862519 *  1.0862519 *  1.0862519 *
   2 H       1.0862386 *  0.0000000    1.7738164 *  1.7738164 *  1.7738164 *
   3 H       1.0862519 *  1.7738164 *  0.0000000    1.7738566 *  1.7738566 *
   4 H       1.0862519 *  1.7738164 *  1.7738566 *  0.0000000    1.7738566 *
   5 H       1.0862519 *  1.7738164 *  1.7738566 *  1.7738566 *  0.0000000  

  * ... LESS THAN  3.000


     ATOMIC BASIS SET
     ----------------
 THE CONTRACTED PRIMITIVE FUNCTIONS HAVE BEEN UNNORMALIZED
 THE CONTRACTED BASIS FUNCTIONS ARE NOW NORMALIZED TO UNITY

  SHELL TYPE  PRIMITIVE        EXPONENT          CONTRACTION COEFFICIENT(S)

 C         

      1   S       1          3047.5248800    0.001834737132
      1   S       2           457.3695180    0.014037322813
      1   S       3           103.9486850    0.068842622264
      1   S       4            29.2101553    0.232184443216
      1   S       5             9.2866630    0.467941348435
      1   S       6             3.1639270    0.362311985337

      2   L       7             7.8682723   -0.119332419775    0.068999066591
      2   L       8             1.8812885   -0.160854151696    0.316423960957
      2   L       9             0.5442493    1.143456437840    0.744308290898

      3   L      10             0.1687145    1.000000000000    1.000000000000

 H         

      4   S      11            18.7311370    0.033494604338
      4   S      12             2.8253944    0.234726953484
      4   S      13             0.6401217    0.813757326146

      5   S      14             0.1612778    1.000000000000

 H         

     10   S      15            18.7311370    0.033494604338
     10   S      16             2.8253944    0.234726953484
     10   S      17             0.6401217    0.813757326146

     11   S      18             0.1612778    1.000000000000

 TOTAL NUMBER OF BASIS SET SHELLS             =   11
 NUMBER OF CARTESIAN GAUSSIAN BASIS FUNCTIONS =   17
 NUMBER OF ELECTRONS                          =   10
 CHARGE OF MOLECULE                           =    0
 SPIN MULTIPLICITY                            =    1
 NUMBER OF OCCUPIED ORBITALS (ALPHA)          =    5
 NUMBER OF OCCUPIED ORBITALS (BETA )          =    5
 TOTAL NUMBER OF ATOMS                        =    5
 THE NUCLEAR REPULSION ENERGY IS       13.4817900223

     $CONTRL OPTIONS
     ---------------
 SCFTYP=RHF          RUNTYP=OPTIMIZE     EXETYP=RUN     
 MPLEVL=       0     CITYP =NONE         CCTYP =NONE         VBTYP =NONE    
 DFTTYP=NONE         TDDFT =NONE    
 MULT  =       1     ICHARG=       0     NZVAR =       0     COORD =UNIQUE  
 PP    =NONE         RELWFN=NONE         LOCAL =RUEDNBRG     NUMGRD=       F
 ISPHER=      -1     NOSYM =       0     MAXIT =      30     UNITS =ANGS    
 PLTORB=       F     MOLPLT=       F     AIMPAC=       F     FRIEND=        
 NPRINT=       7     IREST =       0     GEOM  =INPUT   
 NORMF =       0     NORMP =       0     ITOL  =      20     ICUT  =       9
 INTTYP=BEST         GRDTYP=BEST         QMTTOL= 1.0E-06

     $SYSTEM OPTIONS
     ---------------
  REPLICATED MEMORY=   125000000 WORDS (ON EVERY NODE).
 DISTRIBUTED MEMDDI=           0 MILLION WORDS IN AGGREGATE,
 MEMDDI DISTRIBUTED OVER   1 PROCESSORS IS           0 WORDS/PROCESSOR.
 TOTAL MEMORY REQUESTED ON EACH PROCESSOR=   125000000 WORDS.
 TIMLIM=      525600.00 MINUTES, OR     365.0 DAYS.
 PARALL= F  BALTYP=  DLB     KDIAG=    0  COREFL= F
 MXSEQ2=     300 MXSEQ3=     150  mem10=         0

          ----------------
          PROPERTIES INPUT
          ----------------

     MOMENTS            FIELD           POTENTIAL          DENSITY
 IEMOM =       1   IEFLD =       0   IEPOT =       0   IEDEN =       0
 WHERE =COMASS     WHERE =NUCLEI     WHERE =NUCLEI     WHERE =NUCLEI  
 OUTPUT=BOTH       OUTPUT=BOTH       OUTPUT=BOTH       OUTPUT=BOTH    
 IEMINT=       0   IEFINT=       0                     IEDINT=       0
                                                       MORB  =       0
          EXTRAPOLATION IN EFFECT
          DIIS IN EFFECT
 ORBITAL PRINTING OPTION: NPREO=     1    17     2     1

     -------------------------------
     INTEGRAL TRANSFORMATION OPTIONS
     -------------------------------
     NWORD  =            0
     CUTOFF = 1.0E-09     MPTRAN =       0
     DIRTRF =       F     AOINTS =DUP     

          -----------------------------
          LOCALIZATION INPUT PARAMETERS
          -----------------------------
           LOCAL=RUEDNBRG      NOUTA=       1
          PRTLOC=       F      NOUTB=       0
          MAXLOC=     250     CVGLOC=1.00E-06
           FCORE=       T     SYMLOC=       F
          MOIDON=       F     EDCOMP=       F
          DIPDCM=       F      NPROT=       0
          QADDCM=       F     DEPRNT=       F
          POLNUM=       F     ORIENT=       F
          POLDYN=       F      VMTOL=1.50E-01
          NPRDTL=       2
          MOOUTA =      1

          ----------------------
          INTEGRAL INPUT OPTIONS
          ----------------------
 NOPK  =       1 NORDER=       0 SCHWRZ=       F

     ------------------------------------------
     THE POINT GROUP IS CNV, NAXIS= 3, ORDER= 6
     ------------------------------------------

     DIMENSIONS OF THE SYMMETRY SUBSPACES ARE
 A1  =    9     A2  =    0     E   =    4

 ..... DONE SETTING UP THE RUN .....
 STEP CPU TIME =     0.00 TOTAL CPU TIME =        0.0 (    0.0 MIN)
 TOTAL WALL CLOCK TIME=        0.0 SECONDS, CPU UTILIZATION IS   0.00%


          -----------------------------
          STATIONARY POINT LOCATION RUN
          -----------------------------

 OBTAINING INITIAL HESSIAN, HESS=GUESS   
 CARTESIAN COORDINATE OPTIMIZATION USING BADGER'S RULE FORCE CONSTANT GUESS

          PARAMETERS CONTROLLING GEOMETRY SEARCH ARE
          METHOD =QA                  UPHESS =BFGS    
          NNEG   =         0          NFRZ   =         0
          NSTEP  =        50          IFOLOW =         1
          HESS   =GUESS               RESTAR =         F
          IHREP  =         0          HSSEND =         F
          NPRT   =         0          NPUN   =         0
          OPTTOL = 1.000E-04          RMIN   = 1.500E-03
          RMAX   = 1.000E-01          RLIM   = 7.000E-02
          DXMAX  = 3.000E-01          PURIFY =         F
          MOVIE  =         F          TRUPD  =         T
          TRMAX  = 5.000E-01          TRMIN  = 5.000E-02
          ITBMAT =         5          STPT   =         F
          STSTEP = 1.000E-02          PROJCT=          T

 BEGINNING GEOMETRY SEARCH POINT NSERCH=   0 ...

 COORDINATES OF SYMMETRY UNIQUE ATOMS (ANGS)
   ATOM   CHARGE       X              Y              Z
 ------------------------------------------------------------
 C           6.0   0.0000000000   0.0000000000   0.6979883327
 H           1.0   0.0000000000   0.0000000000   1.7842268879
 H           1.0   1.0241365916   0.0000000000   0.3359282598
 COORDINATES OF ALL ATOMS ARE (ANGS)
   ATOM   CHARGE       X              Y              Z
 ------------------------------------------------------------
 C           6.0   0.0000000000   0.0000000000   0.6979883327
 H           1.0   0.0000000000   0.0000000000   1.7842268879
 H           1.0  -0.5120682958   0.8869283053   0.3359282598
 H           1.0  -0.5120682958  -0.8869283053   0.3359282598
 H           1.0   1.0241365916   0.0000000000   0.3359282598

          ********************
          1 ELECTRON INTEGRALS
          ********************
 ...... END OF ONE-ELECTRON INTEGRALS ......
 STEP CPU TIME =     0.00 TOTAL CPU TIME =        0.0 (    0.0 MIN)
 TOTAL WALL CLOCK TIME=        0.0 SECONDS, CPU UTILIZATION IS   0.00%

          -------------
          GUESS OPTIONS
          -------------
          GUESS =HUCKEL            NORB  =       0          NORDER=       0
          MIX   =       F          PRTMO =       F          PUNMO =       F
          TOLZ  = 1.0E-08          TOLE  = 1.0E-05
          SYMDEN=       F          PURIFY=       F

 INITIAL GUESS ORBITALS GENERATED BY HUCKEL   ROUTINE.
 HUCKEL GUESS REQUIRES      5845 WORDS.

 SYMMETRIES FOR INITIAL GUESS ORBITALS FOLLOW.   BOTH SET(S).
     5 ORBITALS ARE OCCUPIED (    1 CORE ORBITALS).
     2=?A1      3=?E       4=?E       5=?A1      6=?A1      7=?E       8=?E  
     9=?A1     10=A1      11=A1      12=A1      13=A1      14=E       15=E   
 ...... END OF INITIAL ORBITAL SELECTION ......
 STEP CPU TIME =     0.00 TOTAL CPU TIME =        0.0 (    0.0 MIN)
 TOTAL WALL CLOCK TIME=        0.0 SECONDS, CPU UTILIZATION IS   0.00%

                    ----------------------
                    AO INTEGRAL TECHNOLOGY
                    ----------------------
     S,P,L SHELL ROTATED AXIS INTEGRALS, REPROGRAMMED BY
        KAZUYA ISHIMURA (IMS) AND JOSE SIERRA (SYNSTAR).
     S,P,D,L SHELL ROTATED AXIS INTEGRALS PROGRAMMED BY
        KAZUYA ISHIMURA (INSTITUTE FOR MOLECULAR SCIENCE).
     S,P,D,F,G SHELL TO TOTAL QUARTET ANGULAR MOMENTUM SUM 5,
        ERIC PROGRAM BY GRAHAM FLETCHER (ELORET AND NASA ADVANCED
        SUPERCOMPUTING DIVISION, AMES RESEARCH CENTER).
     S,P,D,F,G,L SHELL GENERAL RYS QUADRATURE PROGRAMMED BY
        MICHEL DUPUIS (PACIFIC NORTHWEST NATIONAL LABORATORY).

          --------------------
          2 ELECTRON INTEGRALS
          --------------------

 THE -PK- OPTION IS OFF, THE INTEGRALS ARE NOT IN SUPERMATRIX FORM.
 STORING   15000 INTEGRALS/RECORD ON DISK, USING 12 BYTES/INTEGRAL.
 TWO ELECTRON INTEGRAL EVALUATION REQUIRES   89422 WORDS OF MEMORY.
 II,JST,KST,LST =  1  1  1  1 NREC =         1 INTLOC =    1
 II,JST,KST,LST =  2  1  1  1 NREC =         1 INTLOC =    2
 II,JST,KST,LST =  3  1  1  1 NREC =         1 INTLOC =   34
 II,JST,KST,LST =  4  1  1  1 NREC =         1 INTLOC =  214
 II,JST,KST,LST =  5  1  1  1 NREC =         1 INTLOC =  407
 II,JST,KST,LST =  6  1  1  1 NREC =         1 INTLOC =  678
 II,JST,KST,LST =  7  1  1  1 NREC =         1 INTLOC =  678
 II,JST,KST,LST =  8  1  1  1 NREC =         1 INTLOC =  678
 II,JST,KST,LST =  9  1  1  1 NREC =         1 INTLOC =  678
 II,JST,KST,LST = 10  1  1  1 NREC =         1 INTLOC =  678
 II,JST,KST,LST = 11  1  1  1 NREC =         1 INTLOC = 1434
 TOTAL NUMBER OF NONZERO TWO-ELECTRON INTEGRALS =                2735
          1 INTEGRAL RECORDS WERE STORED ON DISK FILE  8.
  ...... END OF TWO-ELECTRON INTEGRALS .....
 STEP CPU TIME =     0.01 TOTAL CPU TIME =        0.0 (    0.0 MIN)
 TOTAL WALL CLOCK TIME=        0.0 SECONDS, CPU UTILIZATION IS  50.00%

          --------------------------
                 RHF SCF CALCULATION
          --------------------------

     NUCLEAR ENERGY =        13.4817900223
     MAXIT =   30     NPUNCH=    2
     EXTRAP=T  DAMP=F  SHIFT=F  RSTRCT=F  DIIS=T  DEM=F  SOSCF=F
     DENSITY MATRIX CONV=  1.00E-05
     MEMORY REQUIRED FOR RHF ITERS=     32926 WORDS.
 RHFCL F

 ITER EX DEM     TOTAL ENERGY        E CHANGE  DENSITY CHANGE    DIIS ERROR
          * * *   INITIATING DIIS PROCEDURE   * * *
   1  0  0      -40.1175338466   -40.1175338466   0.173724663   0.490627799
   2  1  0      -40.1766119211    -0.0590780745   0.042296316   0.053356169
   3  2  0      -40.1799735483    -0.0033616271   0.013992536   0.026532914
   4  3  0      -40.1804847674    -0.0005112191   0.004160980   0.005070751
   5  4  0      -40.1805071338    -0.0000223664   0.000235412   0.000129675
   6  5  0      -40.1805071963    -0.0000000625   0.000020689   0.000016121
   7  6  0      -40.1805071969    -0.0000000006   0.000002546   0.000001899
   8  7  0      -40.1805071969    -0.0000000000   0.000000142   0.000000045

          -----------------
          DENSITY CONVERGED
          -----------------
     TIME TO FORM FOCK OPERATORS=       0.0 SECONDS (       0.0 SEC/ITER)
     TIME TO SOLVE SCF EQUATIONS=       0.0 SECONDS (       0.0 SEC/ITER)

 FINAL RHF ENERGY IS      -40.1805071969 AFTER   8 ITERATIONS
 ...... END OF RHF CALCULATION ......
 STEP CPU TIME =     0.00 TOTAL CPU TIME =        0.0 (    0.0 MIN)
 TOTAL WALL CLOCK TIME=        0.0 SECONDS, CPU UTILIZATION IS  50.00%

     ----------------------------------------------------------------
     PROPERTY VALUES FOR THE RHF   SELF-CONSISTENT FIELD WAVEFUNCTION
     ----------------------------------------------------------------

          -----------------
          ENERGY COMPONENTS
          -----------------

         WAVEFUNCTION NORMALIZATION =       1.0000000000

                ONE ELECTRON ENERGY =     -79.7545416791
                TWO ELECTRON ENERGY =      26.0922444599
           NUCLEAR REPULSION ENERGY =      13.4817900223
                                      ------------------
                       TOTAL ENERGY =     -40.1805071969

 ELECTRON-ELECTRON POTENTIAL ENERGY =      26.0922444599
  NUCLEUS-ELECTRON POTENTIAL ENERGY =    -119.9850590663
   NUCLEUS-NUCLEUS POTENTIAL ENERGY =      13.4817900223
                                      ------------------
             TOTAL POTENTIAL ENERGY =     -80.4110245841
               TOTAL KINETIC ENERGY =      40.2305173872
                 VIRIAL RATIO (V/T) =       1.9987569091

          ---------------------------------------
          MULLIKEN AND LOWDIN POPULATION ANALYSES
          ---------------------------------------

     ATOMIC MULLIKEN POPULATION IN EACH MOLECULAR ORBITAL

                      1          2          3          4          5

                  2.000000   2.000000   2.000000   2.000000   2.000000

    1             1.997546   1.373023   1.083657   1.083657   1.083657
    2             0.000614   0.156753   0.000000   0.000000   0.687249
    3             0.000613   0.156741   0.152724   0.458172   0.076365
    4             0.000613   0.156741   0.152724   0.458172   0.076365
    5             0.000613   0.156741   0.610895   0.000000   0.076365

               ----- POPULATIONS IN EACH AO -----
                             MULLIKEN      LOWDIN
              1  C  1  S      1.99757     1.99000
              2  C  1  S      0.65037     0.55813
              3  C  1  X      0.69810     0.63091
              4  C  1  Y      0.69810     0.63091
              5  C  1  Z      0.69811     0.63092
              6  C  1  S      0.72263     0.46948
              7  C  1  X      0.38555     0.51539
              8  C  1  Y      0.38555     0.51539
              9  C  1  Z      0.38555     0.51539
             10  H  2  S      0.53305     0.50812
             11  H  2  S      0.31156     0.37776
             12  H  3  S      0.53305     0.50811
             13  H  3  S      0.31157     0.37776
             14  H  4  S      0.53305     0.50811
             15  H  4  S      0.31157     0.37776
             16  H  5  S      0.53305     0.50811
             17  H  5  S      0.31157     0.37776

          ----- MULLIKEN ATOMIC OVERLAP POPULATIONS -----
          (OFF-DIAGONAL ELEMENTS NEED TO BE MULTIPLIED BY 2)

             1           2           3           4           5

    1    5.0955021
    2    0.3815091   0.5471029
    3    0.3815096  -0.0279990   0.5470944
    4    0.3815096  -0.0279990  -0.0279950   0.5470944
    5    0.3815096  -0.0279990  -0.0279950  -0.0279950   0.5470944

          TOTAL MULLIKEN AND LOWDIN ATOMIC POPULATIONS
       ATOM         MULL.POP.    CHARGE          LOW.POP.     CHARGE
    1 C             6.621540   -0.621540         6.456500   -0.456500
    2 H             0.844615    0.155385         0.885877    0.114123
    3 H             0.844615    0.155385         0.885874    0.114126
    4 H             0.844615    0.155385         0.885874    0.114126
    5 H             0.844615    0.155385         0.885874    0.114126

          -------------------------------
          BOND ORDER AND VALENCE ANALYSIS     BOND ORDER THRESHOLD=0.050
          -------------------------------

                   BOND                       BOND                       BOND
  ATOM PAIR DIST  ORDER      ATOM PAIR DIST  ORDER      ATOM PAIR DIST  ORDER
    1   2  1.086  0.961        1   3  1.086  0.961        1   4  1.086  0.961
    1   5  1.086  0.961

                       TOTAL       BONDED        FREE
      ATOM            VALENCE     VALENCE     VALENCE
    1 C                 3.843       3.843      -0.000
    2 H                 0.934       0.934      -0.000
    3 H                 0.934       0.934      -0.000
    4 H                 0.934       0.934      -0.000
    5 H                 0.934       0.934      -0.000

          ---------------------
          ELECTROSTATIC MOMENTS
          ---------------------

 POINT   1           X           Y           Z (BOHR)    CHARGE
                -0.000000    0.000000    1.319014       -0.00 (A.U.)
         DX          DY          DZ         /D/  (DEBYE)
    -0.000000    0.000000    0.000041    0.000041
 ...... END OF PROPERTY EVALUATION ......
 STEP CPU TIME =     0.01 TOTAL CPU TIME =        0.0 (    0.0 MIN)
 TOTAL WALL CLOCK TIME=        0.0 SECONDS, CPU UTILIZATION IS  66.67%

 BEGINNING ONE ELECTRON GRADIENT...
 ..... END OF 1-ELECTRON GRADIENT ......
 STEP CPU TIME =     0.00 TOTAL CPU TIME =        0.0 (    0.0 MIN)
 TOTAL WALL CLOCK TIME=        0.0 SECONDS, CPU UTILIZATION IS  66.67%

          ----------------------
          GRADIENT OF THE ENERGY
          ----------------------
 THE COARSE/FINE SCHWARZ SCREENINGS SKIPPED            0/           0 BLOCKS.
 THE NUMBER OF GRADIENT INTEGRAL BLOCKS COMPUTED WAS       617
 ...... END OF 2-ELECTRON GRADIENT ......
 STEP CPU TIME =     0.00 TOTAL CPU TIME =        0.0 (    0.0 MIN)
 TOTAL WALL CLOCK TIME=        0.0 SECONDS, CPU UTILIZATION IS  66.67%

          NSERCH=  0     ENERGY=     -40.1805072

                                 -----------------------
                                 GRADIENT (HARTREE/BOHR)
                                 -----------------------
        ATOM     ZNUC       DE/DX         DE/DY         DE/DZ
 --------------------------------------------------------------
    1  C            6.0     0.0000000     0.0000000     0.0000006
    2  H            1.0     0.0000000     0.0000000     0.0029805
    3  H            1.0    -0.0014110     0.0024440    -0.0009937
    4  H            1.0    -0.0014110    -0.0024440    -0.0009937
    5  H            1.0     0.0028221     0.0000000    -0.0009937

          MAXIMUM GRADIENT = 0.0029805    RMS GRADIENT = 0.0015435

 NSERCH:   0  E=      -40.1805071969  GRAD. MAX=  0.0029805  R.M.S.=  0.0015435

          FORCE CONSTANT MATRIX NOT UPDATED --- TAKING FIRST STEP
          MIN SEARCH, CORRECT HESSIAN, TRYING PURE NR STEP
               NR STEP HAS LENGTH         =   0.012055
          RADIUS OF STEP TAKEN=   0.01206  CURRENT TRUST RADIUS=   0.30000

 BEGINNING GEOMETRY SEARCH POINT NSERCH=   1 ...

 COORDINATES OF SYMMETRY UNIQUE ATOMS (ANGS)
   ATOM   CHARGE       X              Y              Z
 ------------------------------------------------------------
 C           6.0  -0.0000000000   0.0000000000   0.6980339389
 H           1.0   0.0000000000  -0.0000000000   1.7810840788
 H           1.0   1.0211023925   0.0000000000   0.3369606608
 COORDINATES OF ALL ATOMS ARE (ANGS)
   ATOM   CHARGE       X              Y              Z
 ------------------------------------------------------------
 C           6.0  -0.0000000000   0.0000000000   0.6980339389
 H           1.0   0.0000000000  -0.0000000000   1.7810840788
 H           1.0  -0.5105511962   0.8843006117   0.3369606608
 H           1.0  -0.5105511962  -0.8843006117   0.3369606608
 H           1.0   1.0211023925   0.0000000000   0.3369606608

          INTERNUCLEAR DISTANCES (ANGS.)
          ------------------------------

                1 C          2 H          3 H          4 H          5 H     

   1 C       0.0000000    1.0830501 *  1.0830623 *  1.0830623 *  1.0830623 *
   2 H       1.0830501 *  0.0000000    1.7686556 *  1.7686556 *  1.7686556 *
   3 H       1.0830623 *  1.7686556 *  0.0000000    1.7686012 *  1.7686012 *
   4 H       1.0830623 *  1.7686556 *  1.7686012 *  0.0000000    1.7686012 *
   5 H       1.0830623 *  1.7686556 *  1.7686012 *  1.7686012 *  0.0000000  

  * ... LESS THAN  3.000

 ...... END OF ONE-ELECTRON INTEGRALS ......
 STEP CPU TIME =     0.00 TOTAL CPU TIME =        0.0 (    0.0 MIN)
 TOTAL WALL CLOCK TIME=        0.0 SECONDS, CPU UTILIZATION IS  66.67%
 TOTAL NUMBER OF NONZERO TWO-ELECTRON INTEGRALS =                2735
          1 INTEGRAL RECORDS WERE STORED ON DISK FILE  8.
  ...... END OF TWO-ELECTRON INTEGRALS .....
 STEP CPU TIME =     0.00 TOTAL CPU TIME =        0.0 (    0.0 MIN)
 TOTAL WALL CLOCK TIME=        0.0 SECONDS, CPU UTILIZATION IS  66.67%

          --------------------------
                 RHF SCF CALCULATION
          --------------------------
     DENSITY MATRIX CONV=  1.00E-05
 RHFCL F

 ITER EX DEM     TOTAL ENERGY        E CHANGE  DENSITY CHANGE    DIIS ERROR
          * * *   INITIATING DIIS PROCEDURE   * * *
   1  0  0      -40.1805445572   -40.1805445572   0.001476709   0.001920573
   2  1  0      -40.1805509083    -0.0000063511   0.000450499   0.000705916
   3  2  0      -40.1805516432    -0.0000007349   0.000096502   0.000106134
   4  3  0      -40.1805516683    -0.0000000251   0.000012872   0.000009899
   5  4  0      -40.1805516685    -0.0000000003   0.000002070   0.000001299
   6  5  0      -40.1805516685    -0.0000000000   0.000000212   0.000000213

          -----------------
          DENSITY CONVERGED
          -----------------
     TIME TO FORM FOCK OPERATORS=       0.0 SECONDS (       0.0 SEC/ITER)
     TIME TO SOLVE SCF EQUATIONS=       0.0 SECONDS (       0.0 SEC/ITER)

 FINAL RHF ENERGY IS      -40.1805516685 AFTER   6 ITERATIONS
 ...... END OF RHF CALCULATION ......
 STEP CPU TIME =     0.01 TOTAL CPU TIME =        0.0 (    0.0 MIN)
 TOTAL WALL CLOCK TIME=        0.0 SECONDS, CPU UTILIZATION IS 100.00%
 ..... END OF 1-ELECTRON GRADIENT ......
 STEP CPU TIME =     0.00 TOTAL CPU TIME =        0.0 (    0.0 MIN)
 TOTAL WALL CLOCK TIME=        0.0 SECONDS, CPU UTILIZATION IS  75.00%
 ...... END OF 2-ELECTRON GRADIENT ......
 STEP CPU TIME =     0.01 TOTAL CPU TIME =        0.0 (    0.0 MIN)
 TOTAL WALL CLOCK TIME=        0.0 SECONDS, CPU UTILIZATION IS 100.00%

          NSERCH=  1     ENERGY=     -40.1805517

                                 -----------------------
                                 GRADIENT (HARTREE/BOHR)
                                 -----------------------
        ATOM     ZNUC       DE/DX         DE/DY         DE/DZ
 --------------------------------------------------------------
    1  C            6.0     0.0000000     0.0000000     0.0000252
    2  H            1.0     0.0000000     0.0000000     0.0006908
    3  H            1.0    -0.0003263     0.0005651    -0.0002387
    4  H            1.0    -0.0003263    -0.0005651    -0.0002387
    5  H            1.0     0.0006526     0.0000000    -0.0002387

          MAXIMUM GRADIENT = 0.0006908    RMS GRADIENT = 0.0003584

 NSERCH:   1  E=      -40.1805516685  GRAD. MAX=  0.0006908  R.M.S.=  0.0003584

          HESSIAN UPDATED USING THE BFGS FORMULA
             ACTUAL ENERGY CHANGE WAS  -0.0000444716
          PREDICTED ENERGY CHANGE WAS  -0.0000360302 RATIO=  1.234
          MIN SEARCH, CORRECT HESSIAN, TRYING PURE NR STEP
               NR STEP HAS LENGTH         =   0.003681
          RADIUS OF STEP TAKEN=   0.00368  CURRENT TRUST RADIUS=   0.05000

 BEGINNING GEOMETRY SEARCH POINT NSERCH=   2 ...

 COORDINATES OF SYMMETRY UNIQUE ATOMS (ANGS)
   ATOM   CHARGE       X              Y              Z
 ------------------------------------------------------------
 C           6.0  -0.0000000000   0.0000000000   0.6978845913
 H           1.0   0.0000000000  -0.0000000000   1.7800074417
 H           1.0   1.0202631769   0.0000000000   0.3373693224
 COORDINATES OF ALL ATOMS ARE (ANGS)
   ATOM   CHARGE       X              Y              Z
 ------------------------------------------------------------
 C           6.0  -0.0000000000   0.0000000000   0.6978845913
 H           1.0   0.0000000000  -0.0000000000   1.7800074417
 H           1.0  -0.5101315884   0.8835738297   0.3373693224
 H           1.0  -0.5101315884  -0.8835738297   0.3373693224
 H           1.0   1.0202631769   0.0000000000   0.3373693224

          INTERNUCLEAR DISTANCES (ANGS.)
          ------------------------------

                1 C          2 H          3 H          4 H          5 H     

   1 C       0.0000000    1.0821229 *  1.0820851 *  1.0820851 *  1.0820851 *
   2 H       1.0821229 *  0.0000000    1.7669583 *  1.7669583 *  1.7669583 *
   3 H       1.0820851 *  1.7669583 *  0.0000000    1.7671477 *  1.7671477 *
   4 H       1.0820851 *  1.7669583 *  1.7671477 *  0.0000000    1.7671477 *
   5 H       1.0820851 *  1.7669583 *  1.7671477 *  1.7671477 *  0.0000000  

  * ... LESS THAN  3.000

 ...... END OF ONE-ELECTRON INTEGRALS ......
 STEP CPU TIME =     0.00 TOTAL CPU TIME =        0.0 (    0.0 MIN)
 TOTAL WALL CLOCK TIME=        0.0 SECONDS, CPU UTILIZATION IS 100.00%
 TOTAL NUMBER OF NONZERO TWO-ELECTRON INTEGRALS =                2735
          1 INTEGRAL RECORDS WERE STORED ON DISK FILE  8.
  ...... END OF TWO-ELECTRON INTEGRALS .....
 STEP CPU TIME =     0.00 TOTAL CPU TIME =        0.0 (    0.0 MIN)
 TOTAL WALL CLOCK TIME=        0.0 SECONDS, CPU UTILIZATION IS 100.00%

          --------------------------
                 RHF SCF CALCULATION
          --------------------------
     DENSITY MATRIX CONV=  1.00E-05
 RHFCL F

 ITER EX DEM     TOTAL ENERGY        E CHANGE  DENSITY CHANGE    DIIS ERROR
          * * *   INITIATING DIIS PROCEDURE   * * *
   1  0  0      -40.1805534981   -40.1805534981   0.000459241   0.000603724
   2  1  0      -40.1805540869    -0.0000005888   0.000145157   0.000217265
   3  2  0      -40.1805541546    -0.0000000677   0.000029439   0.000030825
   4  3  0      -40.1805541570    -0.0000000024   0.000005119   0.000003280
   5  4  0      -40.1805541570    -0.0000000000   0.000000946   0.000000412

          -----------------
          DENSITY CONVERGED
          -----------------
     TIME TO FORM FOCK OPERATORS=       0.0 SECONDS (       0.0 SEC/ITER)
     TIME TO SOLVE SCF EQUATIONS=       0.0 SECONDS (       0.0 SEC/ITER)

 FINAL RHF ENERGY IS      -40.1805541570 AFTER   5 ITERATIONS
 ...... END OF RHF CALCULATION ......
 STEP CPU TIME =     0.00 TOTAL CPU TIME =        0.0 (    0.0 MIN)
 TOTAL WALL CLOCK TIME=        0.0 SECONDS, CPU UTILIZATION IS 100.00%
 ..... END OF 1-ELECTRON GRADIENT ......
 STEP CPU TIME =     0.00 TOTAL CPU TIME =        0.0 (    0.0 MIN)
 TOTAL WALL CLOCK TIME=        0.0 SECONDS, CPU UTILIZATION IS 100.00%
 ...... END OF 2-ELECTRON GRADIENT ......
 STEP CPU TIME =     0.00 TOTAL CPU TIME =        0.0 (    0.0 MIN)
 TOTAL WALL CLOCK TIME=        0.0 SECONDS, CPU UTILIZATION IS 100.00%

          NSERCH=  2     ENERGY=     -40.1805542

                                 -----------------------
                                 GRADIENT (HARTREE/BOHR)
                                 -----------------------
        ATOM     ZNUC       DE/DX         DE/DY         DE/DZ
 --------------------------------------------------------------
    1  C            6.0     0.0000000     0.0000000    -0.0000837
    2  H            1.0     0.0000000     0.0000000    -0.0000001
    3  H            1.0     0.0000010    -0.0000017     0.0000279
    4  H            1.0     0.0000010     0.0000017     0.0000279
    5  H            1.0    -0.0000019     0.0000000     0.0000279

          MAXIMUM GRADIENT = 0.0000837    RMS GRADIENT = 0.0000250

 NSERCH:   2  E=      -40.1805541570  GRAD. MAX=  0.0000837  R.M.S.=  0.0000250


      ***** EQUILIBRIUM GEOMETRY LOCATED *****
 COORDINATES OF SYMMETRY UNIQUE ATOMS (ANGS)
   ATOM   CHARGE       X              Y              Z
 ------------------------------------------------------------
 C           6.0  -0.0000000000   0.0000000000   0.6978845913
 H           1.0   0.0000000000  -0.0000000000   1.7800074417
 H           1.0   1.0202631769   0.0000000000   0.3373693224
 COORDINATES OF ALL ATOMS ARE (ANGS)
   ATOM   CHARGE       X              Y              Z
 ------------------------------------------------------------
 C           6.0  -0.0000000000   0.0000000000   0.6978845913
 H           1.0   0.0000000000  -0.0000000000   1.7800074417
 H           1.0  -0.5101315884   0.8835738297   0.3373693224
 H           1.0  -0.5101315884  -0.8835738297   0.3373693224
 H           1.0   1.0202631769   0.0000000000   0.3373693224

          INTERNUCLEAR DISTANCES (ANGS.)
          ------------------------------

                1 C          2 H          3 H          4 H          5 H     

   1 C       0.0000000    1.0821229 *  1.0820851 *  1.0820851 *  1.0820851 *
   2 H       1.0821229 *  0.0000000    1.7669583 *  1.7669583 *  1.7669583 *
   3 H       1.0820851 *  1.7669583 *  0.0000000    1.7671477 *  1.7671477 *
   4 H       1.0820851 *  1.7669583 *  1.7671477 *  0.0000000    1.7671477 *
   5 H       1.0820851 *  1.7669583 *  1.7671477 *  1.7671477 *  0.0000000  

  * ... LESS THAN  3.000


          NUCLEAR ENERGY    =       13.5335450402
          ELECTRONIC ENERGY =      -53.7140991972
          TOTAL ENERGY      =      -40.1805541570

          ------------------
          MOLECULAR ORBITALS
          ------------------

                      1          2          3          4          5
                  -11.2037    -0.9491    -0.5451    -0.5451    -0.5450
                     A1         A1         E          E          A1  
    1  C  1  S    0.996141   0.197196   0.000000   0.000000   0.000019
    2  C  1  S    0.025556  -0.373901   0.000000   0.000000  -0.000045
    3  C  1  X    0.000000   0.000000  -0.437370   0.000000   0.000000
    4  C  1  Y    0.000000   0.000000   0.000000  -0.437370   0.000000
    5  C  1  Z    0.000000  -0.000034   0.000000   0.000000   0.437364
    6  C  1  S   -0.016599  -0.382468   0.000000   0.000000  -0.000017
    7  C  1  X    0.000000   0.000000  -0.221300   0.000000   0.000000
    8  C  1  Y    0.000000   0.000000   0.000000  -0.221300   0.000000
    9  C  1  Z   -0.000001  -0.000024   0.000000   0.000000   0.221317
   10  H  2  S   -0.000109  -0.135015   0.000000   0.000000   0.301637
   11  H  2  S    0.003149  -0.032959   0.000000   0.000000   0.244900
   12  H  3  S   -0.000109  -0.135014   0.142195  -0.246289  -0.100545
   13  H  3  S    0.003148  -0.032964   0.115419  -0.199911  -0.081640
   14  H  4  S   -0.000109  -0.135014   0.142195   0.246289  -0.100545
   15  H  4  S    0.003148  -0.032964   0.115419   0.199911  -0.081640
   16  H  5  S   -0.000109  -0.135014  -0.284390   0.000000  -0.100545
   17  H  5  S    0.003148  -0.032964  -0.230838   0.000000  -0.081640

                      6          7          8          9         10
                    0.2563     0.3254     0.3254     0.3254     0.7404
                     A1         A1         E          E          A1  
    1  C  1  S   -0.153493   0.000010   0.000000   0.000000  -0.000000
    2  C  1  S    0.091539  -0.000033   0.000000   0.000000  -0.000174
    3  C  1  X    0.000000   0.000000  -0.298902   0.000000   0.000000
    4  C  1  Y    0.000000   0.000000   0.000000  -0.298902   0.000000
    5  C  1  Z    0.000034   0.298903   0.000000   0.000000   0.769101
    6  C  1  S    2.798801  -0.000051   0.000000   0.000000   0.000172
    7  C  1  X    0.000000   0.000000  -1.507064   0.000000   0.000000
    8  C  1  Y    0.000000   0.000000   0.000000  -1.507064   0.000000
    9  C  1  Z    0.000297   1.506687   0.000000   0.000000  -1.463171
   10  H  2  S    0.003717  -0.082593   0.000000   0.000000   0.550442
   11  H  2  S   -1.045436  -2.031118   0.000000   0.000000   0.195833
   12  H  3  S    0.003701   0.027557  -0.038912   0.067397  -0.183563
   13  H  3  S   -1.045315   0.677022  -0.957650   1.658699  -0.065208
   14  H  4  S    0.003701   0.027557  -0.038912  -0.067397  -0.183563
   15  H  4  S   -1.045315   0.677022  -0.957650  -1.658699  -0.065208
   16  H  5  S    0.003701   0.027557   0.077824   0.000000  -0.183563
   17  H  5  S   -1.045315   0.677022   1.915301   0.000000  -0.065208

                     11         12         13         14         15
                    0.7404     0.7404     1.2332     1.2333     1.2333
                     E          E          A1         E          E   
    1  C  1  S    0.000000   0.000000   0.000187   0.000000   0.000000
    2  C  1  S    0.000000   0.000000  -0.000454   0.000000   0.000000
    3  C  1  X    0.769090   0.000000   0.000000   0.899756   0.000000
    4  C  1  Y    0.000000   0.769090   0.000000   0.000000   0.899756
    5  C  1  Z    0.000000   0.000000   0.899692   0.000000   0.000000
    6  C  1  S    0.000000   0.000000  -0.000524   0.000000   0.000000
    7  C  1  X   -1.463739   0.000000   0.000000  -1.038064   0.000000
    8  C  1  Y    0.000000  -1.463739   0.000000   0.000000  -1.038064
    9  C  1  Z    0.000000   0.000000  -1.038097   0.000000   0.000000
   10  H  2  S    0.000000   0.000000  -1.030735   0.000000   0.000000
   11  H  2  S    0.000000   0.000000   1.574592   0.000000   0.000000
   12  H  3  S   -0.259508   0.449481   0.344972   0.486412  -0.842489
   13  H  3  S   -0.092587   0.160365  -0.525313  -0.742377   1.285834
   14  H  4  S   -0.259508  -0.449481   0.344972   0.486412   0.842489
   15  H  4  S   -0.092587  -0.160365  -0.525313  -0.742377  -1.285834
   16  H  5  S    0.519016   0.000000   0.344972  -0.972823   0.000000
   17  H  5  S    0.185174   0.000000  -0.525313   1.484754   0.000000

     ----------------------------------------------------------------
     PROPERTY VALUES FOR THE RHF   SELF-CONSISTENT FIELD WAVEFUNCTION
     ----------------------------------------------------------------

          -----------------
          ENERGY COMPONENTS
          -----------------

         WAVEFUNCTION NORMALIZATION =       1.0000000000

                ONE ELECTRON ENERGY =     -79.8523512266
                TWO ELECTRON ENERGY =      26.1382520294
           NUCLEAR REPULSION ENERGY =      13.5335450402
                                      ------------------
                       TOTAL ENERGY =     -40.1805541570

 ELECTRON-ELECTRON POTENTIAL ENERGY =      26.1382520294
  NUCLEUS-ELECTRON POTENTIAL ENERGY =    -120.1066409816
   NUCLEUS-NUCLEUS POTENTIAL ENERGY =      13.5335450402
                                      ------------------
             TOTAL POTENTIAL ENERGY =     -80.4348439120
               TOTAL KINETIC ENERGY =      40.2542897550
                 VIRIAL RATIO (V/T) =       1.9981682549

          ---------------------------------------
          MULLIKEN AND LOWDIN POPULATION ANALYSES
          ---------------------------------------

     ATOMIC MULLIKEN POPULATION IN EACH MOLECULAR ORBITAL

                      1          2          3          4          5

                  2.000000   2.000000   2.000000   2.000000   2.000000

    1             1.997512   1.370654   1.084555   1.084555   1.084545
    2             0.000622   0.157340   0.000000   0.000000   0.686599
    3             0.000622   0.157335   0.152574   0.457722   0.076285
    4             0.000622   0.157335   0.152574   0.457722   0.076285
    5             0.000622   0.157335   0.610297   0.000000   0.076285

               ----- POPULATIONS IN EACH AO -----
                             MULLIKEN      LOWDIN
              1  C  1  S      1.99758     1.99006
              2  C  1  S      0.65154     0.55793
              3  C  1  X      0.70053     0.63312
              4  C  1  Y      0.70053     0.63312
              5  C  1  Z      0.70049     0.63309
              6  C  1  S      0.71905     0.46689
              7  C  1  X      0.38403     0.51413
              8  C  1  Y      0.38403     0.51413
              9  C  1  Z      0.38405     0.51417
             10  H  2  S      0.53487     0.50975
             11  H  2  S      0.30969     0.37611
             12  H  3  S      0.53488     0.50974
             13  H  3  S      0.30965     0.37609
             14  H  4  S      0.53488     0.50974
             15  H  4  S      0.30965     0.37609
             16  H  5  S      0.53488     0.50974
             17  H  5  S      0.30965     0.37609

          ----- MULLIKEN ATOMIC OVERLAP POPULATIONS -----
          (OFF-DIAGONAL ELEMENTS NEED TO BE MULTIPLIED BY 2)

             1           2           3           4           5

    1    5.0929488
    2    0.3822116   0.5468030
    3    0.3822203  -0.0281512   0.5467214
    4    0.3822203  -0.0281512  -0.0281256   0.5467214
    5    0.3822203  -0.0281512  -0.0281256  -0.0281256   0.5467214

          TOTAL MULLIKEN AND LOWDIN ATOMIC POPULATIONS
       ATOM         MULL.POP.    CHARGE          LOW.POP.     CHARGE
    1 C             6.621821   -0.621821         6.456637   -0.456637
    2 H             0.844561    0.155439         0.885854    0.114146
    3 H             0.844539    0.155461         0.885836    0.114164
    4 H             0.844539    0.155461         0.885836    0.114164
    5 H             0.844539    0.155461         0.885836    0.114164

          -------------------------------
          BOND ORDER AND VALENCE ANALYSIS     BOND ORDER THRESHOLD=0.050
          -------------------------------

                   BOND                       BOND                       BOND
  ATOM PAIR DIST  ORDER      ATOM PAIR DIST  ORDER      ATOM PAIR DIST  ORDER
    1   2  1.082  0.961        1   3  1.082  0.961        1   4  1.082  0.961
    1   5  1.082  0.961

                       TOTAL       BONDED        FREE
      ATOM            VALENCE     VALENCE     VALENCE
    1 C                 3.844       3.844      -0.000
    2 H                 0.934       0.934      -0.000
    3 H                 0.934       0.934      -0.000
    4 H                 0.934       0.934      -0.000
    5 H                 0.934       0.934      -0.000

          ---------------------
          ELECTROSTATIC MOMENTS
          ---------------------

 POINT   1           X           Y           Z (BOHR)    CHARGE
                -0.000000    0.000000    1.318879       -0.00 (A.U.)
         DX          DY          DZ         /D/  (DEBYE)
    -0.000000    0.000000    0.000196    0.000196
 ...... END OF PROPERTY EVALUATION ......
 STEP CPU TIME =     0.00 TOTAL CPU TIME =        0.0 (    0.0 MIN)
 TOTAL WALL CLOCK TIME=        0.0 SECONDS, CPU UTILIZATION IS  80.00%
  $VIB   
          IVIB=   0 IATOM=   0 ICOORD=   0 E=      -40.1805541570
  0.000000000E+00 0.000000000E+00-8.369273868E-05 0.000000000E+00 0.000000000E+00
 -1.167694784E-07 9.593586706E-07-1.661657960E-06 2.793650312E-05 9.593586706E-07
  1.661657960E-06 2.793650312E-05-1.918717341E-06 0.000000000E+00 2.793650312E-05
 -3.386312564E-15 1.174647832E-14 1.959099929E-04
 ......END OF GEOMETRY SEARCH......
 STEP CPU TIME =     0.00 TOTAL CPU TIME =        0.0 (    0.0 MIN)
 TOTAL WALL CLOCK TIME=        0.0 SECONDS, CPU UTILIZATION IS  80.00%

          ---------------------------------------
          EDMISTON-RUEDENBERG ENERGY LOCALIZATION
          ---------------------------------------
          C.EDMISTON AND K.RUEDENBERG, REV.MOD.PHYS. 35, 457-465 (1963)

          --------------------
          2 ELECTRON INTEGRALS
          --------------------

 THE -PK- OPTION IS OFF, THE INTEGRALS ARE NOT IN SUPERMATRIX FORM.
 STORING   15000 INTEGRALS/RECORD ON DISK, USING 12 BYTES/INTEGRAL.
 TWO ELECTRON INTEGRAL EVALUATION REQUIRES   89422 WORDS OF MEMORY.
 II,JST,KST,LST =  1  1  1  1 NREC =         1 INTLOC =    1
 II,JST,KST,LST =  2  1  1  1 NREC =         1 INTLOC =    2
 II,JST,KST,LST =  3  1  1  1 NREC =         1 INTLOC =   34
 II,JST,KST,LST =  4  1  1  1 NREC =         1 INTLOC =  214
 II,JST,KST,LST =  5  1  1  1 NREC =         1 INTLOC =  407
 II,JST,KST,LST =  6  1  1  1 NREC =         1 INTLOC =  678
 II,JST,KST,LST =  7  1  1  1 NREC =         1 INTLOC = 1548
 II,JST,KST,LST =  8  1  1  1 NREC =         1 INTLOC = 2653
 II,JST,KST,LST =  9  1  1  1 NREC =         1 INTLOC = 4014
 II,JST,KST,LST = 10  1  1  1 NREC =         1 INTLOC = 5691
 II,JST,KST,LST = 11  1  1  1 NREC =         1 INTLOC = 7447
 TOTAL NUMBER OF NONZERO TWO-ELECTRON INTEGRALS =                9549
          1 INTEGRAL RECORDS WERE STORED ON DISK FILE  8.
  ...... END OF TWO-ELECTRON INTEGRALS .....
 STEP CPU TIME =     0.01 TOTAL CPU TIME =        0.0 (    0.0 MIN)
 TOTAL WALL CLOCK TIME=        0.0 SECONDS, CPU UTILIZATION IS 100.00%

     --------------------------------------------
     PARTIAL TWO ELECTRON INTEGRAL TRANSFORMATION
     --------------------------------------------

 NUMBER OF CORE MOLECULAR ORBITALS     =    1
 NUMBER OF OCCUPIED MOLECULAR ORBITALS =    5
 TOTAL NUMBER OF MOLECULAR ORBITALS    =    5
 TOTAL NUMBER OF ATOMIC ORBITALS       =   17
 THRESHOLD FOR KEEPING TRANSFORMED 2E- INTEGRALS = 1.000E-09
 AO INTEGRALS WILL BE READ IN FROM DISK...

 PLAN A: REQUIREMENTS FOR FULLY IN-MEMORY TRANSFORMATION:
 # OF WORDS AVAILABLE =            124999376
 # OF WORDS NEEDED    =                71885

 CHOOSING IN MEMORY PARTIAL TRANSFORMATION...
 TOTAL NUMBER OF TRANSFORMED 2E- INTEGRALS KEPT =           28
 ... END OF INTEGRAL TRANSFORMATION ...
 STEP CPU TIME =     0.00 TOTAL CPU TIME =        0.0 (    0.0 MIN)
 TOTAL WALL CLOCK TIME=        0.0 SECONDS, CPU UTILIZATION IS 100.00%

          ---------------------------------------
          EDMISTON-RUEDENBERG ENERGY LOCALIZATION
          ---------------------------------------
          C.EDMISTON AND K.RUEDENBERG, REV.MOD.PHYS. 35, 457-465 (1963)

 THIS LOCALIZATION REQUIRES     31018 WORDS OF MEMORY.
 THIS LOCALIZATION HAS   5 ORBITALS, OF WHICH   1 ARE FROZEN.

 INITIAL LOCALIZATION SUMS ARE
     DIAGONAL SUM D=        2.0964596440
      COULOMB SUM C=        7.6039923028
     EXCHANGE SUM X=        2.9305936836

 BEGINNING 2X2 JACOBI ROTATIONS...
          5 PAIR ROTATIONS WHEN CONVERGED TO    1.00E-01
          4 PAIR ROTATIONS WHEN CONVERGED TO    1.00E-02
          5 PAIR ROTATIONS WHEN CONVERGED TO    1.00E-03
          5 PAIR ROTATIONS WHEN CONVERGED TO    1.00E-04
          5 PAIR ROTATIONS WHEN CONVERGED TO    1.00E-05
          5 PAIR ROTATIONS WHEN CONVERGED TO    1.00E-06
         29 TOTAL PAIR ROTATIONS REQUIRED TO CONVERGE TO    1.00E-06

   FINAL LOCALIZATION SUMS ARE
     DIAGONAL SUM D=        2.7105853743
      COULOMB SUM C=        7.6039923028
     EXCHANGE SUM X=        2.9305936836
 FOCK OPERATOR FOR THE LOCALIZED ORBITALS IS

             1           2           3           4

    1   -0.6460616
    2   -0.1009967  -0.6460615
    3   -0.1009967  -0.1009967  -0.6460615
    4    0.1010241   0.1010241   0.1010241  -0.6460248

 EDMISTON-RUEDENBERG ENERGY LOCALIZED ORBITALS

                      1          2          3          4          5

    1  C  1  S    0.996141   0.098602   0.098602   0.098602  -0.098585
    2  C  1  S    0.025556  -0.186961  -0.186961  -0.186961   0.186917
    3  C  1  X    0.000000   0.178556  -0.357111   0.178556   0.000000
    4  C  1  Y    0.000000   0.309268  -0.000000  -0.309268  -0.000000
    5  C  1  Z    0.000000   0.126243   0.126243   0.126243   0.378781
    6  C  1  S   -0.016599  -0.191237  -0.191237  -0.191237   0.191225
    7  C  1  X    0.000000   0.090345  -0.180690   0.090345   0.000000
    8  C  1  Y    0.000000   0.156482  -0.000000  -0.156482  -0.000000
    9  C  1  Z   -0.000001   0.063879   0.063879   0.063879   0.191676
   10  H  2  S   -0.000109   0.019571   0.019571   0.019571   0.328732
   11  H  2  S    0.003149   0.054220   0.054220   0.054219   0.228567
   12  H  3  S   -0.000109   0.019570   0.019570  -0.328736  -0.019565
   13  H  3  S    0.003148   0.054189   0.054189  -0.228528  -0.054219
   14  H  4  S   -0.000109  -0.328736   0.019570   0.019570  -0.019565
   15  H  4  S    0.003148  -0.228528   0.054189   0.054189  -0.054219
   16  H  5  S   -0.000109   0.019570  -0.328736   0.019570  -0.019564
   17  H  5  S    0.003148   0.054189  -0.228528   0.054189  -0.054219
 ... DONE WITH ENERGY LOCALIZATION ...
 STEP CPU TIME =     0.00 TOTAL CPU TIME =        0.0 (    0.0 MIN)
 TOTAL WALL CLOCK TIME=        0.0 SECONDS, CPU UTILIZATION IS 100.00%
               580000  WORDS OF DYNAMIC MEMORY USED
 EXECUTION OF GAMESS TERMINATED NORMALLY Mon Jul 25 11:17:41 2016
 DDI: 263640 bytes (0.3 MB / 0 MWords) used by master data server.

 ----------------------------------------
 CPU timing information for all processes
 ========================================
 0: 0.42 + 0.12 = 0.54
 ----------------------------------------
 ddikick.x: exited gracefully.
