----- GAMESS execution script 'rungms' -----
This job is running on host adm-106348-mac.local
under operating system Darwin at Mon Jul 25 11:18:01 CEST 2016
Available scratch disk space (Kbyte units) at beginning of the job is
Filesystem 1024-blocks      Used Available Capacity  iused    ifree %iused  Mounted on
/dev/disk1   487219328 173771712 313191616    36% 43506926 78297904   36%   /
GAMESS temporary binary files will be written to /var/folders/4f/yfn5hhsj5qs66zvp9j1ymsshjvstmp/T/
GAMESS supplementary output files will be written to /var/folders/4f/yfn5hhsj5qs66zvp9j1ymsshjvstmp/T/
Copying input file 6-31G(d).inp to your run's scratch directory...
The generated host list is
localhost

 Distributed Data Interface kickoff program.
 Initiating 1 compute processes on 1 nodes to run the following command:
 /Users/css/Development/fortran/gamess/gamess.00.x 6-31G(d) 

          ******************************************************
          *         GAMESS VERSION =  5 DEC 2014 (R1)          *
          *             FROM IOWA STATE UNIVERSITY             *
          * M.W.SCHMIDT, K.K.BALDRIDGE, J.A.BOATZ, S.T.ELBERT, *
          *   M.S.GORDON, J.H.JENSEN, S.KOSEKI, N.MATSUNAGA,   *
          *          K.A.NGUYEN, S.J.SU, T.L.WINDUS,           *
          *       TOGETHER WITH M.DUPUIS, J.A.MONTGOMERY       *
          *         J.COMPUT.CHEM.  14, 1347-1363(1993)        *
          **************** 64 BIT APPLE VERSION ****************

  SINCE 1993, STUDENTS AND POSTDOCS WORKING AT IOWA STATE UNIVERSITY
  AND ALSO IN THEIR VARIOUS JOBS AFTER LEAVING ISU HAVE MADE IMPORTANT
  CONTRIBUTIONS TO THE CODE:
     IVANA ADAMOVIC, CHRISTINE AIKENS, YURI ALEXEEV, POOJA ARORA,
     ANDREY ASADCHEV, ROB BELL, PRADIPTA BANDYOPADHYAY, JONATHAN BENTZ,
     BRETT BODE, KURT BRORSEN, CALEB CARLIN, GALINA CHABAN, WEI CHEN,
     CHEOL HO CHOI, PAUL DAY, ALBERT DEFUSCO, NUWAN DESILVA, TIM DUDLEY,
     DMITRI FEDOROV, GRAHAM FLETCHER, MARK FREITAG, KURT GLAESEMANN,
     DAN KEMP, GRANT MERRILL, NORIYUKI MINEZAWA, JONATHAN MULLIN,
     TAKESHI NAGATA, SEAN NEDD, HEATHER NETZLOFF, BOSILJKA NJEGIC, RYAN OLSON,
     MIKE PAK, SPENCER PRUITT, LUKE ROSKOP, JIM SHOEMAKER, LYUDMILA SLIPCHENKO,
     TONY SMITH, SAROM SOK, JIE SONG, TETSUYA TAKETSUGU, SIMON WEBB,
     PENG XU, SOOHAENG YOO, FEDERICO ZAHARIEV

  ADDITIONAL CODE HAS BEEN PROVIDED BY COLLABORATORS IN OTHER GROUPS:
     IOWA STATE UNIVERSITY:
          JOE IVANIC, AARON WEST, LAIMUTIS BYTAUTAS, KLAUS RUEDENBERG
     UNIVERSITY OF TOKYO: KIMIHIKO HIRAO, TAKAHITO NAKAJIMA,
          TAKAO TSUNEDA, MUNEAKI KAMIYA, SUSUMU YANAGISAWA,
          KIYOSHI YAGI, MAHITO CHIBA, SEIKEN TOKURA, NAOAKI KAWAKAMI
     UNIVERSITY OF AARHUS: FRANK JENSEN
     UNIVERSITY OF IOWA: VISVALDAS KAIRYS, HUI LI
     NATIONAL INST. OF STANDARDS AND TECHNOLOGY: WALT STEVENS, DAVID GARMER
     UNIVERSITY OF PISA: BENEDETTA MENNUCCI, JACOPO TOMASI
     UNIVERSITY OF MEMPHIS: HENRY KURTZ, PRAKASHAN KORAMBATH
     UNIVERSITY OF ALBERTA: TOBY ZENG, MARIUSZ KLOBUKOWSKI
     UNIVERSITY OF NEW ENGLAND: MARK SPACKMAN
     MIE UNIVERSITY: HIROAKI UMEDA
     NAT. INST. OF ADVANCED INDUSTRIAL SCIENCE AND TECHNOLOGY: KAZUO KITAURA
     MICHIGAN STATE UNIVERSITY:
          KAROL KOWALSKI, MARTA WLOCH, JEFFREY GOUR, JESSE LUTZ,
          WEI LI, PIOTR PIECUCH
     UNIVERSITY OF SILESIA: MONIKA MUSIAL, STANISLAW KUCHARSKI
     FACULTES UNIVERSITAIRES NOTRE-DAME DE LA PAIX:
          OLIVIER QUINET, BENOIT CHAMPAGNE
     UNIVERSITY OF CALIFORNIA - SANTA BARBARA: BERNARD KIRTMAN
     INSTITUTE FOR MOLECULAR SCIENCE:
          KAZUYA ISHIMURA, MICHIO KATOUDA, AND SHIGERU NAGASE
     UNIVERSITY OF NOTRE DAME: ANNA POMOGAEVA, DAN CHIPMAN
     KYUSHU UNIVERSITY:
          HARUYUKI NAKANO,
          FENG LONG GU, JACEK KORCHOWIEC, MARCIN MAKOWSKI, AND YURIKO AOKI,
          HIROTOSHI MORI AND EISAKU MIYOSHI
     PENNSYLVANIA STATE UNIVERSITY:
          TZVETELIN IORDANOV, CHET SWALINA, JONATHAN SKONE,
          SHARON HAMMES-SCHIFFER
     WASEDA UNIVERSITY:
          MASATO KOBAYASHI, TOMOKO AKAMA, TSUGUKI TOUMA,
          TAKESHI YOSHIKAWA, YASUHIRO IKABATA, HIROMI NAKAI
     NANJING UNIVERSITY: SHUHUA LI
     UNIVERSITY OF NEBRASKA:
          PEIFENG SU, DEJUN SI, NANDUN THELLAMUREGE, YALI WANG, HUI LI
     UNIVERSITY OF ZURICH: ROBERTO PEVERATI, KIM BALDRIDGE
     N. COPERNICUS UNIVERSITY AND JACKSON STATE UNIVERSITY:
          MARIA BARYSZ
     UNIVERSITY OF COPENHAGEN: CASPER STEINMANN
     TOKYO INSTITUTE OF TECHNOLOGY: HIROYA NAKATA
     NAGOYA UNIVERSITY: YOSHIO NISHIMOTO, STEPHAN IRLE

 EXECUTION OF GAMESS BEGUN Mon Jul 25 11:18:01 2016

            ECHO OF THE FIRST FEW INPUT CARDS -
 INPUT CARD> $BASIS                                                                         
 INPUT CARD>   GBASIS=N31 NGAUSS=6 NDFUNC=1                                                 
 INPUT CARD> $END                                                                           
 INPUT CARD> $CONTRL                                                                        
 INPUT CARD>   SCFTYP=RHF                                                                   
 INPUT CARD>   RUNTYP=OPTIMIZE                                                              
 INPUT CARD>   LOCAL=RUEDNBRG                                                               
 INPUT CARD> $END                                                                           
 INPUT CARD> $SYSTEM                                                                        
 INPUT CARD>   MWORDS=125                                                                   
 INPUT CARD> $END                                                                           
 INPUT CARD> $STATPT                                                                        
 INPUT CARD>   OPTTOL=1.0E-4                                                                
 INPUT CARD> $END                                                                           
 INPUT CARD> $GUESS                                                                         
 INPUT CARD>   GUESS=HUCKEL                                                                 
 INPUT CARD> $END                                                                           
 INPUT CARD> $DATA                                                                          
 INPUT CARD>CH4                                                                             
 INPUT CARD>Cnv 3                                                                           
 INPUT CARD>                                                                                
 INPUT CARD> C           6.0   0.0000000000   0.0000000000   0.6979883327                   
 INPUT CARD> H           1.0   0.0000000000   0.0000000000   1.7842268879                   
 INPUT CARD> H           1.0   1.0241365916   0.0000000000   0.3359282598                   
 INPUT CARD> $END                                                                           
  125000000 WORDS OF MEMORY AVAILABLE

     BASIS OPTIONS
     -------------
     GBASIS=N31          IGAUSS=       6      POLAR=POPN31  
     NDFUNC=       1     NFFUNC=       0     DIFFSP=       F
     NPFUNC=       0      DIFFS=       F     BASNAM=        


     RUN TITLE
     ---------
 CH4                                                                             

 THE POINT GROUP OF THE MOLECULE IS CNV     
 THE ORDER OF THE PRINCIPAL AXIS IS     3

 ATOM      ATOMIC                      COORDINATES (BOHR)
           CHARGE         X                   Y                   Z
 C           6.0     0.0000000000        0.0000000000        1.3190066914
 H           1.0     0.0000000000        0.0000000000        3.3716999181
 H           1.0    -0.9676687661        1.6760514677        0.6348123626
 H           1.0    -0.9676687661       -1.6760514677        0.6348123626
 H           1.0     1.9353375321        0.0000000000        0.6348123626

          INTERNUCLEAR DISTANCES (ANGS.)
          ------------------------------

                1 C          2 H          3 H          4 H          5 H     

   1 C       0.0000000    1.0862386 *  1.0862519 *  1.0862519 *  1.0862519 *
   2 H       1.0862386 *  0.0000000    1.7738164 *  1.7738164 *  1.7738164 *
   3 H       1.0862519 *  1.7738164 *  0.0000000    1.7738566 *  1.7738566 *
   4 H       1.0862519 *  1.7738164 *  1.7738566 *  0.0000000    1.7738566 *
   5 H       1.0862519 *  1.7738164 *  1.7738566 *  1.7738566 *  0.0000000  

  * ... LESS THAN  3.000


     ATOMIC BASIS SET
     ----------------
 THE CONTRACTED PRIMITIVE FUNCTIONS HAVE BEEN UNNORMALIZED
 THE CONTRACTED BASIS FUNCTIONS ARE NOW NORMALIZED TO UNITY

  SHELL TYPE  PRIMITIVE        EXPONENT          CONTRACTION COEFFICIENT(S)

 C         

      1   S       1          3047.5248800    0.001834737132
      1   S       2           457.3695180    0.014037322813
      1   S       3           103.9486850    0.068842622264
      1   S       4            29.2101553    0.232184443216
      1   S       5             9.2866630    0.467941348435
      1   S       6             3.1639270    0.362311985337

      2   L       7             7.8682723   -0.119332419775    0.068999066591
      2   L       8             1.8812885   -0.160854151696    0.316423960957
      2   L       9             0.5442493    1.143456437840    0.744308290898

      3   L      10             0.1687145    1.000000000000    1.000000000000

      4   D      11             0.8000000    1.000000000000

 H         

      5   S      12            18.7311370    0.033494604338
      5   S      13             2.8253944    0.234726953484
      5   S      14             0.6401217    0.813757326146

      6   S      15             0.1612778    1.000000000000

 H         

     11   S      16            18.7311370    0.033494604338
     11   S      17             2.8253944    0.234726953484
     11   S      18             0.6401217    0.813757326146

     12   S      19             0.1612778    1.000000000000

 TOTAL NUMBER OF BASIS SET SHELLS             =   12
 NUMBER OF CARTESIAN GAUSSIAN BASIS FUNCTIONS =   23
 NUMBER OF ELECTRONS                          =   10
 CHARGE OF MOLECULE                           =    0
 SPIN MULTIPLICITY                            =    1
 NUMBER OF OCCUPIED ORBITALS (ALPHA)          =    5
 NUMBER OF OCCUPIED ORBITALS (BETA )          =    5
 TOTAL NUMBER OF ATOMS                        =    5
 THE NUCLEAR REPULSION ENERGY IS       13.4817900223

     $CONTRL OPTIONS
     ---------------
 SCFTYP=RHF          RUNTYP=OPTIMIZE     EXETYP=RUN     
 MPLEVL=       0     CITYP =NONE         CCTYP =NONE         VBTYP =NONE    
 DFTTYP=NONE         TDDFT =NONE    
 MULT  =       1     ICHARG=       0     NZVAR =       0     COORD =UNIQUE  
 PP    =NONE         RELWFN=NONE         LOCAL =RUEDNBRG     NUMGRD=       F
 ISPHER=      -1     NOSYM =       0     MAXIT =      30     UNITS =ANGS    
 PLTORB=       F     MOLPLT=       F     AIMPAC=       F     FRIEND=        
 NPRINT=       7     IREST =       0     GEOM  =INPUT   
 NORMF =       0     NORMP =       0     ITOL  =      20     ICUT  =       9
 INTTYP=BEST         GRDTYP=BEST         QMTTOL= 1.0E-06

     $SYSTEM OPTIONS
     ---------------
  REPLICATED MEMORY=   125000000 WORDS (ON EVERY NODE).
 DISTRIBUTED MEMDDI=           0 MILLION WORDS IN AGGREGATE,
 MEMDDI DISTRIBUTED OVER   1 PROCESSORS IS           0 WORDS/PROCESSOR.
 TOTAL MEMORY REQUESTED ON EACH PROCESSOR=   125000000 WORDS.
 TIMLIM=      525600.00 MINUTES, OR     365.0 DAYS.
 PARALL= F  BALTYP=  DLB     KDIAG=    0  COREFL= F
 MXSEQ2=     300 MXSEQ3=     150  mem10=         0

          ----------------
          PROPERTIES INPUT
          ----------------

     MOMENTS            FIELD           POTENTIAL          DENSITY
 IEMOM =       1   IEFLD =       0   IEPOT =       0   IEDEN =       0
 WHERE =COMASS     WHERE =NUCLEI     WHERE =NUCLEI     WHERE =NUCLEI  
 OUTPUT=BOTH       OUTPUT=BOTH       OUTPUT=BOTH       OUTPUT=BOTH    
 IEMINT=       0   IEFINT=       0                     IEDINT=       0
                                                       MORB  =       0
          EXTRAPOLATION IN EFFECT
          DIIS IN EFFECT
 ORBITAL PRINTING OPTION: NPREO=     1    23     2     1

     -------------------------------
     INTEGRAL TRANSFORMATION OPTIONS
     -------------------------------
     NWORD  =            0
     CUTOFF = 1.0E-09     MPTRAN =       0
     DIRTRF =       F     AOINTS =DUP     

          -----------------------------
          LOCALIZATION INPUT PARAMETERS
          -----------------------------
           LOCAL=RUEDNBRG      NOUTA=       1
          PRTLOC=       F      NOUTB=       0
          MAXLOC=     250     CVGLOC=1.00E-06
           FCORE=       T     SYMLOC=       F
          MOIDON=       F     EDCOMP=       F
          DIPDCM=       F      NPROT=       0
          QADDCM=       F     DEPRNT=       F
          POLNUM=       F     ORIENT=       F
          POLDYN=       F      VMTOL=1.50E-01
          NPRDTL=       2
          MOOUTA =      1

          ----------------------
          INTEGRAL INPUT OPTIONS
          ----------------------
 NOPK  =       1 NORDER=       0 SCHWRZ=       F

     ------------------------------------------
     THE POINT GROUP IS CNV, NAXIS= 3, ORDER= 6
     ------------------------------------------

     DIMENSIONS OF THE SYMMETRY SUBSPACES ARE
 A1  =   11     A2  =    0     E   =    6

 ..... DONE SETTING UP THE RUN .....
 STEP CPU TIME =     0.00 TOTAL CPU TIME =        0.0 (    0.0 MIN)
 TOTAL WALL CLOCK TIME=        0.0 SECONDS, CPU UTILIZATION IS   0.00%


          -----------------------------
          STATIONARY POINT LOCATION RUN
          -----------------------------

 OBTAINING INITIAL HESSIAN, HESS=GUESS   
 CARTESIAN COORDINATE OPTIMIZATION USING BADGER'S RULE FORCE CONSTANT GUESS

          PARAMETERS CONTROLLING GEOMETRY SEARCH ARE
          METHOD =QA                  UPHESS =BFGS    
          NNEG   =         0          NFRZ   =         0
          NSTEP  =        50          IFOLOW =         1
          HESS   =GUESS               RESTAR =         F
          IHREP  =         0          HSSEND =         F
          NPRT   =         0          NPUN   =         0
          OPTTOL = 1.000E-04          RMIN   = 1.500E-03
          RMAX   = 1.000E-01          RLIM   = 7.000E-02
          DXMAX  = 3.000E-01          PURIFY =         F
          MOVIE  =         F          TRUPD  =         T
          TRMAX  = 5.000E-01          TRMIN  = 5.000E-02
          ITBMAT =         5          STPT   =         F
          STSTEP = 1.000E-02          PROJCT=          T

 BEGINNING GEOMETRY SEARCH POINT NSERCH=   0 ...

 COORDINATES OF SYMMETRY UNIQUE ATOMS (ANGS)
   ATOM   CHARGE       X              Y              Z
 ------------------------------------------------------------
 C           6.0   0.0000000000   0.0000000000   0.6979883327
 H           1.0   0.0000000000   0.0000000000   1.7842268879
 H           1.0   1.0241365916   0.0000000000   0.3359282598
 COORDINATES OF ALL ATOMS ARE (ANGS)
   ATOM   CHARGE       X              Y              Z
 ------------------------------------------------------------
 C           6.0   0.0000000000   0.0000000000   0.6979883327
 H           1.0   0.0000000000   0.0000000000   1.7842268879
 H           1.0  -0.5120682958   0.8869283053   0.3359282598
 H           1.0  -0.5120682958  -0.8869283053   0.3359282598
 H           1.0   1.0241365916   0.0000000000   0.3359282598

          ********************
          1 ELECTRON INTEGRALS
          ********************
 ...... END OF ONE-ELECTRON INTEGRALS ......
 STEP CPU TIME =     0.00 TOTAL CPU TIME =        0.0 (    0.0 MIN)
 TOTAL WALL CLOCK TIME=        0.0 SECONDS, CPU UTILIZATION IS   0.00%

          -------------
          GUESS OPTIONS
          -------------
          GUESS =HUCKEL            NORB  =       0          NORDER=       0
          MIX   =       F          PRTMO =       F          PUNMO =       F
          TOLZ  = 1.0E-08          TOLE  = 1.0E-05
          SYMDEN=       F          PURIFY=       F

 INITIAL GUESS ORBITALS GENERATED BY HUCKEL   ROUTINE.
 HUCKEL GUESS REQUIRES      7663 WORDS.

 SYMMETRIES FOR INITIAL GUESS ORBITALS FOLLOW.   BOTH SET(S).
     5 ORBITALS ARE OCCUPIED (    1 CORE ORBITALS).
     2=?A1      3=?E       4=?E       5=?A1      6=?A1      7=?E       8=?E  
     9=?A1     10=A1      11=A1      12=A1      13=A1      14=A1      15=A1  
 ...... END OF INITIAL ORBITAL SELECTION ......
 STEP CPU TIME =     0.00 TOTAL CPU TIME =        0.0 (    0.0 MIN)
 TOTAL WALL CLOCK TIME=        0.0 SECONDS, CPU UTILIZATION IS   0.00%

                    ----------------------
                    AO INTEGRAL TECHNOLOGY
                    ----------------------
     S,P,L SHELL ROTATED AXIS INTEGRALS, REPROGRAMMED BY
        KAZUYA ISHIMURA (IMS) AND JOSE SIERRA (SYNSTAR).
     S,P,D,L SHELL ROTATED AXIS INTEGRALS PROGRAMMED BY
        KAZUYA ISHIMURA (INSTITUTE FOR MOLECULAR SCIENCE).
     S,P,D,F,G SHELL TO TOTAL QUARTET ANGULAR MOMENTUM SUM 5,
        ERIC PROGRAM BY GRAHAM FLETCHER (ELORET AND NASA ADVANCED
        SUPERCOMPUTING DIVISION, AMES RESEARCH CENTER).
     S,P,D,F,G,L SHELL GENERAL RYS QUADRATURE PROGRAMMED BY
        MICHEL DUPUIS (PACIFIC NORTHWEST NATIONAL LABORATORY).

          --------------------
          2 ELECTRON INTEGRALS
          --------------------

 THE -PK- OPTION IS OFF, THE INTEGRALS ARE NOT IN SUPERMATRIX FORM.
 STORING   15000 INTEGRALS/RECORD ON DISK, USING 12 BYTES/INTEGRAL.
 TWO ELECTRON INTEGRAL EVALUATION REQUIRES   90474 WORDS OF MEMORY.
 II,JST,KST,LST =  1  1  1  1 NREC =         1 INTLOC =    1
 II,JST,KST,LST =  2  1  1  1 NREC =         1 INTLOC =    2
 II,JST,KST,LST =  3  1  1  1 NREC =         1 INTLOC =   34
 II,JST,KST,LST =  4  1  1  1 NREC =         1 INTLOC =  214
 II,JST,KST,LST =  5  1  1  1 NREC =         1 INTLOC = 1189
 II,JST,KST,LST =  6  1  1  1 NREC =         1 INTLOC = 1867
 II,JST,KST,LST =  7  1  1  1 NREC =         1 INTLOC = 2713
 II,JST,KST,LST =  8  1  1  1 NREC =         1 INTLOC = 2713
 II,JST,KST,LST =  9  1  1  1 NREC =         1 INTLOC = 2713
 II,JST,KST,LST = 10  1  1  1 NREC =         1 INTLOC = 2713
 II,JST,KST,LST = 11  1  1  1 NREC =         1 INTLOC = 2713
 II,JST,KST,LST = 12  1  1  1 NREC =         1 INTLOC = 4839
 TOTAL NUMBER OF NONZERO TWO-ELECTRON INTEGRALS =                8016
          1 INTEGRAL RECORDS WERE STORED ON DISK FILE  8.
  ...... END OF TWO-ELECTRON INTEGRALS .....
 STEP CPU TIME =     0.02 TOTAL CPU TIME =        0.0 (    0.0 MIN)
 TOTAL WALL CLOCK TIME=        0.0 SECONDS, CPU UTILIZATION IS  66.67%

          --------------------------
                 RHF SCF CALCULATION
          --------------------------

     NUCLEAR ENERGY =        13.4817900223
     MAXIT =   30     NPUNCH=    2
     EXTRAP=T  DAMP=F  SHIFT=F  RSTRCT=F  DIIS=T  DEM=F  SOSCF=F
     DENSITY MATRIX CONV=  1.00E-05
     MEMORY REQUIRED FOR RHF ITERS=     34690 WORDS.
 RHFCL F

 ITER EX DEM     TOTAL ENERGY        E CHANGE  DENSITY CHANGE    DIIS ERROR
          * * *   INITIATING DIIS PROCEDURE   * * *
   1  0  0      -40.1095940348   -40.1095940348   0.122442175   0.408002298
   2  1  0      -40.1906318004    -0.0810377656   0.043873827   0.055195069
   3  2  0      -40.1945193930    -0.0038875926   0.015174463   0.018504531
   4  3  0      -40.1951223356    -0.0006029426   0.004363824   0.003584547
   5  4  0      -40.1951531241    -0.0000307884   0.000329887   0.000204048
   6  5  0      -40.1951533164    -0.0000001923   0.000045415   0.000021579
   7  6  0      -40.1951533183    -0.0000000019   0.000004193   0.000002241
   8  7  0      -40.1951533183    -0.0000000000   0.000000080   0.000000113

          -----------------
          DENSITY CONVERGED
          -----------------
     TIME TO FORM FOCK OPERATORS=       0.0 SECONDS (       0.0 SEC/ITER)
     TIME TO SOLVE SCF EQUATIONS=       0.0 SECONDS (       0.0 SEC/ITER)

 FINAL RHF ENERGY IS      -40.1951533183 AFTER   8 ITERATIONS
 ...... END OF RHF CALCULATION ......
 STEP CPU TIME =     0.00 TOTAL CPU TIME =        0.0 (    0.0 MIN)
 TOTAL WALL CLOCK TIME=        0.0 SECONDS, CPU UTILIZATION IS  66.67%

     ----------------------------------------------------------------
     PROPERTY VALUES FOR THE RHF   SELF-CONSISTENT FIELD WAVEFUNCTION
     ----------------------------------------------------------------

          -----------------
          ENERGY COMPONENTS
          -----------------

         WAVEFUNCTION NORMALIZATION =       1.0000000000

                ONE ELECTRON ENERGY =     -79.7813674062
                TWO ELECTRON ENERGY =      26.1044240657
           NUCLEAR REPULSION ENERGY =      13.4817900223
                                      ------------------
                       TOTAL ENERGY =     -40.1951533183

 ELECTRON-ELECTRON POTENTIAL ENERGY =      26.1044240657
  NUCLEUS-ELECTRON POTENTIAL ENERGY =    -119.9494259039
   NUCLEUS-NUCLEUS POTENTIAL ENERGY =      13.4817900223
                                      ------------------
             TOTAL POTENTIAL ENERGY =     -80.3632118160
               TOTAL KINETIC ENERGY =      40.1680584977
                 VIRIAL RATIO (V/T) =       2.0006745365

          ---------------------------------------
          MULLIKEN AND LOWDIN POPULATION ANALYSES
          ---------------------------------------

     ATOMIC MULLIKEN POPULATION IN EACH MOLECULAR ORBITAL

                      1          2          3          4          5

                  2.000000   2.000000   2.000000   2.000000   2.000000

    1             1.998022   1.349071   1.104227   1.104227   1.104231
    2             0.000494   0.162741   0.000000   0.000000   0.671820
    3             0.000494   0.162729   0.149296   0.447887   0.074650
    4             0.000494   0.162729   0.149296   0.447887   0.074650
    5             0.000494   0.162729   0.597182   0.000000   0.074650

               ----- POPULATIONS IN EACH AO -----
                             MULLIKEN      LOWDIN
              1  C  1  S      1.99642     1.98236
              2  C  1  S      0.62599     0.35225
              3  C  1  X      0.69384     0.62782
              4  C  1  Y      0.69384     0.62821
              5  C  1  Z      0.69385     0.62763
              6  C  1  S      0.68507     0.35411
              7  C  1  X      0.39641     0.51782
              8  C  1  Y      0.39641     0.51862
              9  C  1  Z      0.39641     0.51743
             10  C  1 XX      0.02019     0.15637
             11  C  1 YY      0.02019     0.15637
             12  C  1 ZZ      0.02252     0.15926
             13  C  1 XY      0.00932     0.01363
             14  C  1 XZ      0.00466     0.00678
             15  C  1 YZ      0.00466     0.00682
             16  H  2  S      0.52258     0.48612
             17  H  2  S      0.31247     0.35911
             18  H  3  S      0.52258     0.48368
             19  H  3  S      0.31248     0.35889
             20  H  4  S      0.52258     0.48368
             21  H  4  S      0.31248     0.35889
             22  H  5  S      0.52258     0.48514
             23  H  5  S      0.31248     0.35902

          ----- MULLIKEN ATOMIC OVERLAP POPULATIONS -----
          (OFF-DIAGONAL ELEMENTS NEED TO BE MULTIPLIED BY 2)

             1           2           3           4           5

    1    5.1062349
    2    0.3883861   0.5246895
    3    0.3883855  -0.0260069   0.5246840
    4    0.3883855  -0.0260069  -0.0260034   0.5246840
    5    0.3883855  -0.0260069  -0.0260034  -0.0260034   0.5246840

          TOTAL MULLIKEN AND LOWDIN ATOMIC POPULATIONS
       ATOM         MULL.POP.    CHARGE          LOW.POP.     CHARGE
    1 C             6.659778   -0.659778         6.625474   -0.625474
    2 H             0.835055    0.164945         0.845226    0.154774
    3 H             0.835056    0.164944         0.842567    0.157433
    4 H             0.835056    0.164944         0.842567    0.157433
    5 H             0.835056    0.164944         0.844166    0.155834

          -------------------------------
          BOND ORDER AND VALENCE ANALYSIS     BOND ORDER THRESHOLD=0.050
          -------------------------------

                   BOND                       BOND                       BOND
  ATOM PAIR DIST  ORDER      ATOM PAIR DIST  ORDER      ATOM PAIR DIST  ORDER
    1   2  1.086  0.962        1   3  1.086  0.962        1   4  1.086  0.962
    1   5  1.086  0.962

                       TOTAL       BONDED        FREE
      ATOM            VALENCE     VALENCE     VALENCE
    1 C                 3.848       3.848      -0.000
    2 H                 0.934       0.934      -0.000
    3 H                 0.934       0.934      -0.000
    4 H                 0.934       0.934      -0.000
    5 H                 0.934       0.934      -0.000

          ---------------------
          ELECTROSTATIC MOMENTS
          ---------------------

 POINT   1           X           Y           Z (BOHR)    CHARGE
                -0.000000    0.000000    1.319014       -0.00 (A.U.)
         DX          DY          DZ         /D/  (DEBYE)
    -0.000000    0.000000    0.000032    0.000032
 ...... END OF PROPERTY EVALUATION ......
 STEP CPU TIME =     0.00 TOTAL CPU TIME =        0.0 (    0.0 MIN)
 TOTAL WALL CLOCK TIME=        0.0 SECONDS, CPU UTILIZATION IS  50.00%

 BEGINNING ONE ELECTRON GRADIENT...
 ..... END OF 1-ELECTRON GRADIENT ......
 STEP CPU TIME =     0.00 TOTAL CPU TIME =        0.0 (    0.0 MIN)
 TOTAL WALL CLOCK TIME=        0.0 SECONDS, CPU UTILIZATION IS  50.00%

          ----------------------
          GRADIENT OF THE ENERGY
          ----------------------

 THE MINIMUM MEMORY REQUIRED FOR THIS RUN IS      74081 WORDS.
 USING    1049601 WORDS FOR 2E- DERIVATIVE INTEGRAL CONTRIBUTIONS.
 THE COARSE/FINE SCHWARZ SCREENINGS SKIPPED            0/           0 BLOCKS.
 THE NUMBER OF GRADIENT INTEGRAL BLOCKS COMPUTED WAS       904
 ...... END OF 2-ELECTRON GRADIENT ......
 STEP CPU TIME =     0.01 TOTAL CPU TIME =        0.0 (    0.0 MIN)
 TOTAL WALL CLOCK TIME=        0.0 SECONDS, CPU UTILIZATION IS  60.00%

          NSERCH=  0     ENERGY=     -40.1951533

                                 -----------------------
                                 GRADIENT (HARTREE/BOHR)
                                 -----------------------
        ATOM     ZNUC       DE/DX         DE/DY         DE/DZ
 --------------------------------------------------------------
    1  C            6.0     0.0000000     0.0000000     0.0000009
    2  H            1.0     0.0000000     0.0000000     0.0018871
    3  H            1.0    -0.0008955     0.0015510    -0.0006293
    4  H            1.0    -0.0008955    -0.0015510    -0.0006293
    5  H            1.0     0.0017909     0.0000000    -0.0006293

          MAXIMUM GRADIENT = 0.0018871    RMS GRADIENT = 0.0009788

 NSERCH:   0  E=      -40.1951533183  GRAD. MAX=  0.0018871  R.M.S.=  0.0009788

          FORCE CONSTANT MATRIX NOT UPDATED --- TAKING FIRST STEP
          MIN SEARCH, CORRECT HESSIAN, TRYING PURE NR STEP
               NR STEP HAS LENGTH         =   0.007646
          RADIUS OF STEP TAKEN=   0.00765  CURRENT TRUST RADIUS=   0.30000

 BEGINNING GEOMETRY SEARCH POINT NSERCH=   1 ...

 COORDINATES OF SYMMETRY UNIQUE ATOMS (ANGS)
   ATOM   CHARGE       X              Y              Z
 ------------------------------------------------------------
 C           6.0  -0.0000000000   0.0000000000   0.6980314802
 H           1.0   0.0000000000  -0.0000000000   1.7822486973
 H           1.0   1.0222037936   0.0000000000   0.3365732742
 COORDINATES OF ALL ATOMS ARE (ANGS)
   ATOM   CHARGE       X              Y              Z
 ------------------------------------------------------------
 C           6.0  -0.0000000000   0.0000000000   0.6980314802
 H           1.0   0.0000000000  -0.0000000000   1.7822486973
 H           1.0  -0.5111018968   0.8852544531   0.3365732742
 H           1.0  -0.5111018968  -0.8852544531   0.3365732742
 H           1.0   1.0222037936   0.0000000000   0.3365732742

          INTERNUCLEAR DISTANCES (ANGS.)
          ------------------------------

                1 C          2 H          3 H          4 H          5 H     

   1 C       0.0000000    1.0842172 *  1.0842290 *  1.0842290 *  1.0842290 *
   2 H       1.0842172 *  0.0000000    1.7705587 *  1.7705587 *  1.7705587 *
   3 H       1.0842290 *  1.7705587 *  0.0000000    1.7705089 *  1.7705089 *
   4 H       1.0842290 *  1.7705587 *  1.7705089 *  0.0000000    1.7705089 *
   5 H       1.0842290 *  1.7705587 *  1.7705089 *  1.7705089 *  0.0000000  

  * ... LESS THAN  3.000

 ...... END OF ONE-ELECTRON INTEGRALS ......
 STEP CPU TIME =     0.00 TOTAL CPU TIME =        0.0 (    0.0 MIN)
 TOTAL WALL CLOCK TIME=        0.0 SECONDS, CPU UTILIZATION IS  60.00%
 TOTAL NUMBER OF NONZERO TWO-ELECTRON INTEGRALS =                8016
          1 INTEGRAL RECORDS WERE STORED ON DISK FILE  8.
  ...... END OF TWO-ELECTRON INTEGRALS .....
 STEP CPU TIME =     0.00 TOTAL CPU TIME =        0.0 (    0.0 MIN)
 TOTAL WALL CLOCK TIME=        0.0 SECONDS, CPU UTILIZATION IS  60.00%

          --------------------------
                 RHF SCF CALCULATION
          --------------------------
     DENSITY MATRIX CONV=  1.00E-05
 RHFCL F

 ITER EX DEM     TOTAL ENERGY        E CHANGE  DENSITY CHANGE    DIIS ERROR
          * * *   INITIATING DIIS PROCEDURE   * * *
   1  0  0      -40.1951682476   -40.1951682476   0.000997887   0.001299412
   2  1  0      -40.1951707024    -0.0000024548   0.000289264   0.000422965
   3  2  0      -40.1951710141    -0.0000003117   0.000058222   0.000056484
   4  3  0      -40.1951710210    -0.0000000069   0.000005911   0.000004889
   5  4  0      -40.1951710211    -0.0000000001   0.000000981   0.000000571

          -----------------
          DENSITY CONVERGED
          -----------------
     TIME TO FORM FOCK OPERATORS=       0.0 SECONDS (       0.0 SEC/ITER)
     TIME TO SOLVE SCF EQUATIONS=       0.0 SECONDS (       0.0 SEC/ITER)

 FINAL RHF ENERGY IS      -40.1951710211 AFTER   5 ITERATIONS
 ...... END OF RHF CALCULATION ......
 STEP CPU TIME =     0.01 TOTAL CPU TIME =        0.0 (    0.0 MIN)
 TOTAL WALL CLOCK TIME=        0.0 SECONDS, CPU UTILIZATION IS  80.00%
 ..... END OF 1-ELECTRON GRADIENT ......
 STEP CPU TIME =     0.01 TOTAL CPU TIME =        0.0 (    0.0 MIN)
 TOTAL WALL CLOCK TIME=        0.0 SECONDS, CPU UTILIZATION IS 100.00%
 ...... END OF 2-ELECTRON GRADIENT ......
 STEP CPU TIME =     0.00 TOTAL CPU TIME =        0.0 (    0.0 MIN)
 TOTAL WALL CLOCK TIME=        0.1 SECONDS, CPU UTILIZATION IS  83.33%

          NSERCH=  1     ENERGY=     -40.1951710

                                 -----------------------
                                 GRADIENT (HARTREE/BOHR)
                                 -----------------------
        ATOM     ZNUC       DE/DX         DE/DY         DE/DZ
 --------------------------------------------------------------
    1  C            6.0     0.0000000     0.0000000     0.0000237
    2  H            1.0     0.0000000     0.0000000     0.0004142
    3  H            1.0    -0.0001964     0.0003403    -0.0001460
    4  H            1.0    -0.0001964    -0.0003403    -0.0001460
    5  H            1.0     0.0003929     0.0000000    -0.0001460

          MAXIMUM GRADIENT = 0.0004142    RMS GRADIENT = 0.0002159

 NSERCH:   1  E=      -40.1951710211  GRAD. MAX=  0.0004142  R.M.S.=  0.0002159

          HESSIAN UPDATED USING THE BFGS FORMULA
             ACTUAL ENERGY CHANGE WAS  -0.0000177028
          PREDICTED ENERGY CHANGE WAS  -0.0000144898 RATIO=  1.222
          MIN SEARCH, CORRECT HESSIAN, TRYING PURE NR STEP
               NR STEP HAS LENGTH         =   0.002211
          RADIUS OF STEP TAKEN=   0.00221  CURRENT TRUST RADIUS=   0.05000

 BEGINNING GEOMETRY SEARCH POINT NSERCH=   2 ...

 COORDINATES OF SYMMETRY UNIQUE ATOMS (ANGS)
   ATOM   CHARGE       X              Y              Z
 ------------------------------------------------------------
 C           6.0  -0.0000000000  -0.0000000000   0.6978992639
 H           1.0   0.0000000000  -0.0000000000   1.7815783636
 H           1.0   1.0217253237   0.0000000000   0.3368407908
 COORDINATES OF ALL ATOMS ARE (ANGS)
   ATOM   CHARGE       X              Y              Z
 ------------------------------------------------------------
 C           6.0  -0.0000000000  -0.0000000000   0.6978992639
 H           1.0   0.0000000000  -0.0000000000   1.7815783636
 H           1.0  -0.5108626619   0.8848400860   0.3368407908
 H           1.0  -0.5108626619  -0.8848400860   0.3368407908
 H           1.0   1.0217253237   0.0000000000   0.3368407908

          INTERNUCLEAR DISTANCES (ANGS.)
          ------------------------------

                1 C          2 H          3 H          4 H          5 H     

   1 C       0.0000000    1.0836791 *  1.0836447 *  1.0836447 *  1.0836447 *
   2 H       1.0836791 *  0.0000000    1.7695167 *  1.7695167 *  1.7695167 *
   3 H       1.0836447 *  1.7695167 *  0.0000000    1.7696802 *  1.7696802 *
   4 H       1.0836447 *  1.7695167 *  1.7696802 *  0.0000000    1.7696802 *
   5 H       1.0836447 *  1.7695167 *  1.7696802 *  1.7696802 *  0.0000000  

  * ... LESS THAN  3.000

 ...... END OF ONE-ELECTRON INTEGRALS ......
 STEP CPU TIME =     0.00 TOTAL CPU TIME =        0.0 (    0.0 MIN)
 TOTAL WALL CLOCK TIME=        0.1 SECONDS, CPU UTILIZATION IS  83.33%
 TOTAL NUMBER OF NONZERO TWO-ELECTRON INTEGRALS =                8016
          1 INTEGRAL RECORDS WERE STORED ON DISK FILE  8.
  ...... END OF TWO-ELECTRON INTEGRALS .....
 STEP CPU TIME =     0.00 TOTAL CPU TIME =        0.0 (    0.0 MIN)
 TOTAL WALL CLOCK TIME=        0.1 SECONDS, CPU UTILIZATION IS  83.33%

          --------------------------
                 RHF SCF CALCULATION
          --------------------------
     DENSITY MATRIX CONV=  1.00E-05
 RHFCL F

 ITER EX DEM     TOTAL ENERGY        E CHANGE  DENSITY CHANGE    DIIS ERROR
          * * *   INITIATING DIIS PROCEDURE   * * *
   1  0  0      -40.1951716794   -40.1951716794   0.000293254   0.000390081
   2  1  0      -40.1951718831    -0.0000002037   0.000088278   0.000131562
   3  2  0      -40.1951719084    -0.0000000254   0.000016462   0.000017211
   4  3  0      -40.1951719091    -0.0000000007   0.000002730   0.000001626
   5  4  0      -40.1951719091    -0.0000000000   0.000000598   0.000000334

          -----------------
          DENSITY CONVERGED
          -----------------
     TIME TO FORM FOCK OPERATORS=       0.0 SECONDS (       0.0 SEC/ITER)
     TIME TO SOLVE SCF EQUATIONS=       0.0 SECONDS (       0.0 SEC/ITER)

 FINAL RHF ENERGY IS      -40.1951719091 AFTER   5 ITERATIONS
 ...... END OF RHF CALCULATION ......
 STEP CPU TIME =     0.01 TOTAL CPU TIME =        0.1 (    0.0 MIN)
 TOTAL WALL CLOCK TIME=        0.1 SECONDS, CPU UTILIZATION IS 100.00%
 ..... END OF 1-ELECTRON GRADIENT ......
 STEP CPU TIME =     0.00 TOTAL CPU TIME =        0.1 (    0.0 MIN)
 TOTAL WALL CLOCK TIME=        0.1 SECONDS, CPU UTILIZATION IS  85.71%
 ...... END OF 2-ELECTRON GRADIENT ......
 STEP CPU TIME =     0.00 TOTAL CPU TIME =        0.1 (    0.0 MIN)
 TOTAL WALL CLOCK TIME=        0.1 SECONDS, CPU UTILIZATION IS  85.71%

          NSERCH=  2     ENERGY=     -40.1951719

                                 -----------------------
                                 GRADIENT (HARTREE/BOHR)
                                 -----------------------
        ATOM     ZNUC       DE/DX         DE/DY         DE/DZ
 --------------------------------------------------------------
    1  C            6.0     0.0000000     0.0000000    -0.0000739
    2  H            1.0     0.0000000     0.0000000     0.0000063
    3  H            1.0    -0.0000004     0.0000007     0.0000225
    4  H            1.0    -0.0000004    -0.0000007     0.0000225
    5  H            1.0     0.0000008     0.0000000     0.0000225

          MAXIMUM GRADIENT = 0.0000739    RMS GRADIENT = 0.0000216

 NSERCH:   2  E=      -40.1951719091  GRAD. MAX=  0.0000739  R.M.S.=  0.0000216


      ***** EQUILIBRIUM GEOMETRY LOCATED *****
 COORDINATES OF SYMMETRY UNIQUE ATOMS (ANGS)
   ATOM   CHARGE       X              Y              Z
 ------------------------------------------------------------
 C           6.0  -0.0000000000  -0.0000000000   0.6978992639
 H           1.0   0.0000000000  -0.0000000000   1.7815783636
 H           1.0   1.0217253237   0.0000000000   0.3368407908
 COORDINATES OF ALL ATOMS ARE (ANGS)
   ATOM   CHARGE       X              Y              Z
 ------------------------------------------------------------
 C           6.0  -0.0000000000  -0.0000000000   0.6978992639
 H           1.0   0.0000000000  -0.0000000000   1.7815783636
 H           1.0  -0.5108626619   0.8848400860   0.3368407908
 H           1.0  -0.5108626619  -0.8848400860   0.3368407908
 H           1.0   1.0217253237   0.0000000000   0.3368407908

          INTERNUCLEAR DISTANCES (ANGS.)
          ------------------------------

                1 C          2 H          3 H          4 H          5 H     

   1 C       0.0000000    1.0836791 *  1.0836447 *  1.0836447 *  1.0836447 *
   2 H       1.0836791 *  0.0000000    1.7695167 *  1.7695167 *  1.7695167 *
   3 H       1.0836447 *  1.7695167 *  0.0000000    1.7696802 *  1.7696802 *
   4 H       1.0836447 *  1.7695167 *  1.7696802 *  0.0000000    1.7696802 *
   5 H       1.0836447 *  1.7695167 *  1.7696802 *  1.7696802 *  0.0000000  

  * ... LESS THAN  3.000


          NUCLEAR ENERGY    =       13.5140780417
          ELECTRONIC ENERGY =      -53.7092499508
          TOTAL ENERGY      =      -40.1951719091

          ------------------
          MOLECULAR ORBITALS
          ------------------

                      1          2          3          4          5
                  -11.2050    -0.9446    -0.5462    -0.5462    -0.5461
                     A1         A1         E          E          A1  
    1  C  1  S    0.995621   0.194147   0.000000   0.000000   0.000015
    2  C  1  S    0.028507  -0.358887   0.000000   0.000000  -0.000037
    3  C  1  X    0.000000   0.000000  -0.436133   0.000000   0.000000
    4  C  1  Y    0.000000   0.000000   0.000000  -0.436133   0.000000
    5  C  1  Z    0.000000  -0.000025   0.000000   0.000000   0.436127
    6  C  1  S   -0.013353  -0.362601   0.000000   0.000000  -0.000016
    7  C  1  X    0.000000   0.000000  -0.228736   0.000000   0.000000
    8  C  1  Y    0.000000   0.000000   0.000000  -0.228736   0.000000
    9  C  1  Z   -0.000001  -0.000014   0.000000   0.000000   0.228755
   10  C  1 XX   -0.002076  -0.010183  -0.025442   0.000000  -0.017990
   11  C  1 YY   -0.002076  -0.010183   0.025442   0.000000  -0.017990
   12  C  1 ZZ   -0.002076  -0.010174   0.000000   0.000000   0.035982
   13  C  1 XY    0.000000   0.000000   0.000000   0.029378   0.000000
   14  C  1 XZ    0.000000   0.000000   0.020762   0.000000   0.000000
   15  C  1 YZ    0.000000   0.000000   0.000000   0.020762   0.000000
   16  H  2  S    0.000044  -0.134643   0.000000   0.000000   0.292117
   17  H  2  S    0.002479  -0.037688   0.000000   0.000000   0.240797
   18  H  3  S    0.000043  -0.134642   0.137708  -0.238517  -0.097369
   19  H  3  S    0.002479  -0.037690   0.113489  -0.196569  -0.080269
   20  H  4  S    0.000043  -0.134642   0.137708   0.238517  -0.097369
   21  H  4  S    0.002479  -0.037690   0.113489   0.196569  -0.080269
   22  H  5  S    0.000043  -0.134642  -0.275416   0.000000  -0.097369
   23  H  5  S    0.002479  -0.037690  -0.226978   0.000000  -0.080269

                      6          7          8          9         10
                    0.2571     0.3278     0.3278     0.3278     0.7282
                     A1         A1         E          E          A1  
    1  C  1  S   -0.157030  -0.000007   0.000000   0.000000   0.000005
    2  C  1  S    0.104583   0.000028   0.000000   0.000000   0.000140
    3  C  1  X    0.000000   0.000000  -0.297004   0.000000   0.000000
    4  C  1  Y    0.000000   0.000000   0.000000  -0.297004   0.000000
    5  C  1  Z    0.000023  -0.297002   0.000000   0.000000  -0.729103
    6  C  1  S    2.823796   0.000005   0.000000   0.000000  -0.000206
    7  C  1  X    0.000000   0.000000  -1.505527   0.000000   0.000000
    8  C  1  Y    0.000000   0.000000   0.000000  -1.505527   0.000000
    9  C  1  Z    0.000242  -1.505201   0.000000   0.000000   1.354579
   10  C  1 XX   -0.012690  -0.007565   0.010697   0.000000   0.051168
   11  C  1 YY   -0.012690  -0.007565  -0.010697   0.000000   0.051168
   12  C  1 ZZ   -0.012688   0.015130   0.000000   0.000000  -0.102293
   13  C  1 XY    0.000000   0.000000   0.000000  -0.012352   0.000000
   14  C  1 XZ    0.000000   0.000000  -0.008731   0.000000   0.000000
   15  C  1 YZ    0.000000   0.000000   0.000000  -0.008731   0.000000
   16  H  2  S    0.005275   0.076409   0.000000   0.000000  -0.539037
   17  H  2  S   -1.050328   2.022479   0.000000   0.000000  -0.091133
   18  H  3  S    0.005260  -0.025492  -0.035999   0.062352   0.179748
   19  H  3  S   -1.050263  -0.674124  -0.953551   1.651599   0.030335
   20  H  4  S    0.005260  -0.025492  -0.035999  -0.062352   0.179748
   21  H  4  S   -1.050263  -0.674124  -0.953551  -1.651599   0.030335
   22  H  5  S    0.005260  -0.025492   0.071998   0.000000   0.179748
   23  H  5  S   -1.050263  -0.674124   1.907102   0.000000   0.030335

                     11         12         13         14         15
                    0.7282     0.7282     1.1843     1.1844     1.1844
                     E          E          A1         E          E   
    1  C  1  S    0.000000   0.000000   0.000067   0.000000   0.000000
    2  C  1  S    0.000000   0.000000   0.000068   0.000000   0.000000
    3  C  1  X   -0.729090   0.000000   0.000000   0.918462   0.000000
    4  C  1  Y    0.000000  -0.729090   0.000000   0.000000   0.918462
    5  C  1  Z    0.000000   0.000000   0.918413   0.000000   0.000000
    6  C  1  S    0.000000   0.000000  -0.000704   0.000000   0.000000
    7  C  1  X    1.355054   0.000000   0.000000  -1.204629   0.000000
    8  C  1  Y    0.000000   1.355054   0.000000   0.000000  -1.204629
    9  C  1  Z    0.000000   0.000000  -1.204572   0.000000   0.000000
   10  C  1 XX   -0.072356   0.000000   0.109972  -0.155550   0.000000
   11  C  1 YY    0.072356   0.000000   0.109972   0.155550   0.000000
   12  C  1 ZZ    0.000000   0.000000  -0.219913   0.000000   0.000000
   13  C  1 XY    0.000000   0.083550   0.000000   0.000000   0.179614
   14  C  1 XZ    0.059051   0.000000   0.000000   0.126946   0.000000
   15  C  1 YZ    0.000000   0.059051   0.000000   0.000000   0.126946
   16  H  2  S    0.000000   0.000000  -0.854879   0.000000   0.000000
   17  H  2  S    0.000000   0.000000   1.591675   0.000000   0.000000
   18  H  3  S    0.254127  -0.440161   0.285400   0.403163  -0.698299
   19  H  3  S    0.043198  -0.074821  -0.530544  -0.750305   1.299566
   20  H  4  S    0.254127   0.440161   0.285400   0.403163   0.698299
   21  H  4  S    0.043198   0.074821  -0.530544  -0.750305  -1.299566
   22  H  5  S   -0.508254   0.000000   0.285400  -0.806326   0.000000
   23  H  5  S   -0.086396   0.000000  -0.530544   1.500610   0.000000

     ----------------------------------------------------------------
     PROPERTY VALUES FOR THE RHF   SELF-CONSISTENT FIELD WAVEFUNCTION
     ----------------------------------------------------------------

          -----------------
          ENERGY COMPONENTS
          -----------------

         WAVEFUNCTION NORMALIZATION =       1.0000000000

                ONE ELECTRON ENERGY =     -79.8423587013
                TWO ELECTRON ENERGY =      26.1331087505
           NUCLEAR REPULSION ENERGY =      13.5140780417
                                      ------------------
                       TOTAL ENERGY =     -40.1951719091

 ELECTRON-ELECTRON POTENTIAL ENERGY =      26.1331087505
  NUCLEUS-ELECTRON POTENTIAL ENERGY =    -120.0251641411
   NUCLEUS-NUCLEUS POTENTIAL ENERGY =      13.5140780417
                                      ------------------
             TOTAL POTENTIAL ENERGY =     -80.3779773489
               TOTAL KINETIC ENERGY =      40.1828054398
                 VIRIAL RATIO (V/T) =       2.0003077552

          ---------------------------------------
          MULLIKEN AND LOWDIN POPULATION ANALYSES
          ---------------------------------------

     ATOMIC MULLIKEN POPULATION IN EACH MOLECULAR ORBITAL

                      1          2          3          4          5

                  2.000000   2.000000   2.000000   2.000000   2.000000

    1             1.998006   1.347501   1.104995   1.104995   1.104995
    2             0.000499   0.163127   0.000000   0.000000   0.671270
    3             0.000498   0.163124   0.149168   0.447503   0.074578
    4             0.000498   0.163124   0.149168   0.447503   0.074578
    5             0.000498   0.163124   0.596670   0.000000   0.074578

               ----- POPULATIONS IN EACH AO -----
                             MULLIKEN      LOWDIN
              1  C  1  S      1.99642     1.98240
              2  C  1  S      0.62670     0.35232
              3  C  1  X      0.69541     0.62924
              4  C  1  Y      0.69541     0.62964
              5  C  1  Z      0.69538     0.62902
              6  C  1  S      0.68272     0.35297
              7  C  1  X      0.39558     0.51711
              8  C  1  Y      0.39558     0.51791
              9  C  1  Z      0.39561     0.51675
             10  C  1 XX      0.02023     0.15642
             11  C  1 YY      0.02023     0.15642
             12  C  1 ZZ      0.02255     0.15929
             13  C  1 XY      0.00934     0.01368
             14  C  1 XZ      0.00466     0.00680
             15  C  1 YZ      0.00466     0.00683
             16  H  2  S      0.52354     0.48685
             17  H  2  S      0.31135     0.35807
             18  H  3  S      0.52355     0.48439
             19  H  3  S      0.31132     0.35783
             20  H  4  S      0.52355     0.48439
             21  H  4  S      0.31132     0.35783
             22  H  5  S      0.52355     0.48587
             23  H  5  S      0.31132     0.35797

          ----- MULLIKEN ATOMIC OVERLAP POPULATIONS -----
          (OFF-DIAGONAL ELEMENTS NEED TO BE MULTIPLIED BY 2)

             1           2           3           4           5

    1    5.1051823
    2    0.3888236   0.5243233
    3    0.3888284  -0.0260835   0.5242543
    4    0.3888284  -0.0260835  -0.0260642   0.5242543
    5    0.3888284  -0.0260835  -0.0260642  -0.0260642   0.5242543

          TOTAL MULLIKEN AND LOWDIN ATOMIC POPULATIONS
       ATOM         MULL.POP.    CHARGE          LOW.POP.     CHARGE
    1 C             6.660491   -0.660491         6.626798   -0.626798
    2 H             0.834896    0.165104         0.844921    0.155079
    3 H             0.834871    0.165129         0.842224    0.157776
    4 H             0.834871    0.165129         0.842224    0.157776
    5 H             0.834871    0.165129         0.843833    0.156167

          -------------------------------
          BOND ORDER AND VALENCE ANALYSIS     BOND ORDER THRESHOLD=0.050
          -------------------------------

                   BOND                       BOND                       BOND
  ATOM PAIR DIST  ORDER      ATOM PAIR DIST  ORDER      ATOM PAIR DIST  ORDER
    1   2  1.084  0.962        1   3  1.084  0.962        1   4  1.084  0.962
    1   5  1.084  0.962

                       TOTAL       BONDED        FREE
      ATOM            VALENCE     VALENCE     VALENCE
    1 C                 3.848       3.848      -0.000
    2 H                 0.934       0.934      -0.000
    3 H                 0.934       0.934      -0.000
    4 H                 0.934       0.934      -0.000
    5 H                 0.934       0.934      -0.000

          ---------------------
          ELECTROSTATIC MOMENTS
          ---------------------

 POINT   1           X           Y           Z (BOHR)    CHARGE
                -0.000000    0.000000    1.318898       -0.00 (A.U.)
         DX          DY          DZ         /D/  (DEBYE)
    -0.000000    0.000000    0.000109    0.000109
 ...... END OF PROPERTY EVALUATION ......
 STEP CPU TIME =     0.00 TOTAL CPU TIME =        0.1 (    0.0 MIN)
 TOTAL WALL CLOCK TIME=        0.1 SECONDS, CPU UTILIZATION IS  85.71%
  $VIB   
          IVIB=   0 IATOM=   0 ICOORD=   0 E=      -40.1951719091
  0.000000000E+00 0.000000000E+00-7.391432107E-05 0.000000000E+00 0.000000000E+00
  6.289456268E-06-3.901438188E-07 6.757489163E-07 2.254162164E-05-3.901438188E-07
 -6.757489163E-07 2.254162164E-05 7.802876375E-07 0.000000000E+00 2.254162164E-05
 -2.821927136E-15 1.287524917E-14 1.086234241E-04
 ......END OF GEOMETRY SEARCH......
 STEP CPU TIME =     0.00 TOTAL CPU TIME =        0.1 (    0.0 MIN)
 TOTAL WALL CLOCK TIME=        0.1 SECONDS, CPU UTILIZATION IS  85.71%

          ---------------------------------------
          EDMISTON-RUEDENBERG ENERGY LOCALIZATION
          ---------------------------------------
          C.EDMISTON AND K.RUEDENBERG, REV.MOD.PHYS. 35, 457-465 (1963)

          --------------------
          2 ELECTRON INTEGRALS
          --------------------

 THE -PK- OPTION IS OFF, THE INTEGRALS ARE NOT IN SUPERMATRIX FORM.
 STORING   15000 INTEGRALS/RECORD ON DISK, USING 12 BYTES/INTEGRAL.
 TWO ELECTRON INTEGRAL EVALUATION REQUIRES   90474 WORDS OF MEMORY.
 II,JST,KST,LST =  1  1  1  1 NREC =         1 INTLOC =    1
 II,JST,KST,LST =  2  1  1  1 NREC =         1 INTLOC =    2
 II,JST,KST,LST =  3  1  1  1 NREC =         1 INTLOC =   34
 II,JST,KST,LST =  4  1  1  1 NREC =         1 INTLOC =  214
 II,JST,KST,LST =  5  1  1  1 NREC =         1 INTLOC = 1189
 II,JST,KST,LST =  6  1  1  1 NREC =         1 INTLOC = 1867
 II,JST,KST,LST =  7  1  1  1 NREC =         1 INTLOC = 2713
 II,JST,KST,LST =  8  1  1  1 NREC =         1 INTLOC = 5638
 II,JST,KST,LST =  9  1  1  1 NREC =         1 INTLOC = 9077
 II,JST,KST,LST = 10  1  1  1 NREC =         1 INTLOC =13035
 II,JST,KST,LST = 11  1  1  1 NREC =         2 INTLOC = 2624
 II,JST,KST,LST = 12  1  1  1 NREC =         2 INTLOC = 6763
 TOTAL NUMBER OF NONZERO TWO-ELECTRON INTEGRALS =               26489
          2 INTEGRAL RECORDS WERE STORED ON DISK FILE  8.
  ...... END OF TWO-ELECTRON INTEGRALS .....
 STEP CPU TIME =     0.01 TOTAL CPU TIME =        0.1 (    0.0 MIN)
 TOTAL WALL CLOCK TIME=        0.1 SECONDS, CPU UTILIZATION IS  87.50%

     --------------------------------------------
     PARTIAL TWO ELECTRON INTEGRAL TRANSFORMATION
     --------------------------------------------

 NUMBER OF CORE MOLECULAR ORBITALS     =    1
 NUMBER OF OCCUPIED MOLECULAR ORBITALS =    5
 TOTAL NUMBER OF MOLECULAR ORBITALS    =    5
 TOTAL NUMBER OF ATOMIC ORBITALS       =   23
 THRESHOLD FOR KEEPING TRANSFORMED 2E- INTEGRALS = 1.000E-09
 AO INTEGRALS WILL BE READ IN FROM DISK...

 PLAN A: REQUIREMENTS FOR FULLY IN-MEMORY TRANSFORMATION:
 # OF WORDS AVAILABLE =            124998890
 # OF WORDS NEEDED    =                88085

 CHOOSING IN MEMORY PARTIAL TRANSFORMATION...
 TOTAL NUMBER OF TRANSFORMED 2E- INTEGRALS KEPT =           28
 ... END OF INTEGRAL TRANSFORMATION ...
 STEP CPU TIME =     0.00 TOTAL CPU TIME =        0.1 (    0.0 MIN)
 TOTAL WALL CLOCK TIME=        0.1 SECONDS, CPU UTILIZATION IS  87.50%

          ---------------------------------------
          EDMISTON-RUEDENBERG ENERGY LOCALIZATION
          ---------------------------------------
          C.EDMISTON AND K.RUEDENBERG, REV.MOD.PHYS. 35, 457-465 (1963)

 THIS LOCALIZATION REQUIRES     31744 WORDS OF MEMORY.
 THIS LOCALIZATION HAS   5 ORBITALS, OF WHICH   1 ARE FROZEN.

 INITIAL LOCALIZATION SUMS ARE
     DIAGONAL SUM D=        2.1083481881
      COULOMB SUM C=        7.6152910113
     EXCHANGE SUM X=        2.9500909910

 BEGINNING 2X2 JACOBI ROTATIONS...
          5 PAIR ROTATIONS WHEN CONVERGED TO    1.00E-01
          4 PAIR ROTATIONS WHEN CONVERGED TO    1.00E-02
          5 PAIR ROTATIONS WHEN CONVERGED TO    1.00E-03
          5 PAIR ROTATIONS WHEN CONVERGED TO    1.00E-04
          5 PAIR ROTATIONS WHEN CONVERGED TO    1.00E-05
          3 PAIR ROTATIONS WHEN CONVERGED TO    1.00E-06
         27 TOTAL PAIR ROTATIONS REQUIRED TO CONVERGE TO    1.00E-06

   FINAL LOCALIZATION SUMS ARE
     DIAGONAL SUM D=        2.7529866011
      COULOMB SUM C=        7.6152910113
     EXCHANGE SUM X=        2.9500909910
 FOCK OPERATOR FOR THE LOCALIZED ORBITALS IS

             1           2           3           4

    1   -0.6457868
    2   -0.0995887  -0.6457867
    3   -0.0995886  -0.0995886  -0.6457865
    4    0.0996102   0.0996102   0.0996101  -0.6457489

 EDMISTON-RUEDENBERG ENERGY LOCALIZED ORBITALS

                      1          2          3          4          5

    1  C  1  S    0.995621   0.097077   0.097077   0.097077  -0.097061
    2  C  1  S    0.028507  -0.179454  -0.179454  -0.179454   0.179413
    3  C  1  X    0.000000   0.178051  -0.356101   0.178051   0.000000
    4  C  1  Y    0.000000   0.308393  -0.000000  -0.308393   0.000000
    5  C  1  Z    0.000000   0.125888   0.125888   0.125888   0.377708
    6  C  1  S   -0.013353  -0.181305  -0.181304  -0.181304   0.181288
    7  C  1  X    0.000000   0.093381  -0.186762   0.093381   0.000000
    8  C  1  Y    0.000000   0.161741  -0.000000  -0.161741   0.000000
    9  C  1  Z   -0.000001   0.066029   0.066030   0.066029   0.198114
   10  C  1 XX   -0.002076   0.000102  -0.031058   0.000102  -0.010489
   11  C  1 YY   -0.002076  -0.020671   0.010489  -0.020672  -0.010489
   12  C  1 ZZ   -0.002076   0.005300   0.005300   0.005300   0.036248
   13  C  1 XY    0.000000  -0.020773   0.000000   0.020773  -0.000000
   14  C  1 XZ    0.000000  -0.008476   0.016952  -0.008476  -0.000000
   15  C  1 YZ    0.000000  -0.014681   0.000000   0.014681  -0.000000
   16  H  2  S    0.000044   0.017006   0.017007   0.017007   0.320302
   17  H  2  S    0.002479   0.050669   0.050669   0.050669   0.227380
   18  H  3  S    0.000043   0.017009   0.017009  -0.320305  -0.017002
   19  H  3  S    0.002479   0.050646   0.050646  -0.227344  -0.050669
   20  H  4  S    0.000043  -0.320305   0.017009   0.017009  -0.017002
   21  H  4  S    0.002479  -0.227344   0.050646   0.050646  -0.050670
   22  H  5  S    0.000043   0.017009  -0.320305   0.017010  -0.017002
   23  H  5  S    0.002479   0.050646  -0.227344   0.050646  -0.050669
 ... DONE WITH ENERGY LOCALIZATION ...
 STEP CPU TIME =     0.00 TOTAL CPU TIME =        0.1 (    0.0 MIN)
 TOTAL WALL CLOCK TIME=        0.1 SECONDS, CPU UTILIZATION IS  87.50%
              1049661  WORDS OF DYNAMIC MEMORY USED
 EXECUTION OF GAMESS TERMINATED NORMALLY Mon Jul 25 11:18:01 2016
 DDI: 263640 bytes (0.3 MB / 0 MWords) used by master data server.

 ----------------------------------------
 CPU timing information for all processes
 ========================================
 0: 0.65 + 0.12 = 0.77
 ----------------------------------------
 ddikick.x: exited gracefully.
