----- GAMESS execution script 'rungms' -----
This job is running on host adm-106348-mac.local
under operating system Darwin at Mon Jul 25 11:15:10 CEST 2016
Available scratch disk space (Kbyte units) at beginning of the job is
Filesystem 1024-blocks      Used Available Capacity  iused    ifree %iused  Mounted on
/dev/disk1   487219328 173768024 313195304    36% 43506004 78298826   36%   /
GAMESS temporary binary files will be written to /var/folders/4f/yfn5hhsj5qs66zvp9j1ymsshjvstmp/T/
GAMESS supplementary output files will be written to /var/folders/4f/yfn5hhsj5qs66zvp9j1ymsshjvstmp/T/
Copying input file cc-pVDZ.inp to your run's scratch directory...
The generated host list is
localhost

 Distributed Data Interface kickoff program.
 Initiating 1 compute processes on 1 nodes to run the following command:
 /Users/css/Development/fortran/gamess/gamess.00.x cc-pVDZ 

          ******************************************************
          *         GAMESS VERSION =  5 DEC 2014 (R1)          *
          *             FROM IOWA STATE UNIVERSITY             *
          * M.W.SCHMIDT, K.K.BALDRIDGE, J.A.BOATZ, S.T.ELBERT, *
          *   M.S.GORDON, J.H.JENSEN, S.KOSEKI, N.MATSUNAGA,   *
          *          K.A.NGUYEN, S.J.SU, T.L.WINDUS,           *
          *       TOGETHER WITH M.DUPUIS, J.A.MONTGOMERY       *
          *         J.COMPUT.CHEM.  14, 1347-1363(1993)        *
          **************** 64 BIT APPLE VERSION ****************

  SINCE 1993, STUDENTS AND POSTDOCS WORKING AT IOWA STATE UNIVERSITY
  AND ALSO IN THEIR VARIOUS JOBS AFTER LEAVING ISU HAVE MADE IMPORTANT
  CONTRIBUTIONS TO THE CODE:
     IVANA ADAMOVIC, CHRISTINE AIKENS, YURI ALEXEEV, POOJA ARORA,
     ANDREY ASADCHEV, ROB BELL, PRADIPTA BANDYOPADHYAY, JONATHAN BENTZ,
     BRETT BODE, KURT BRORSEN, CALEB CARLIN, GALINA CHABAN, WEI CHEN,
     CHEOL HO CHOI, PAUL DAY, ALBERT DEFUSCO, NUWAN DESILVA, TIM DUDLEY,
     DMITRI FEDOROV, GRAHAM FLETCHER, MARK FREITAG, KURT GLAESEMANN,
     DAN KEMP, GRANT MERRILL, NORIYUKI MINEZAWA, JONATHAN MULLIN,
     TAKESHI NAGATA, SEAN NEDD, HEATHER NETZLOFF, BOSILJKA NJEGIC, RYAN OLSON,
     MIKE PAK, SPENCER PRUITT, LUKE ROSKOP, JIM SHOEMAKER, LYUDMILA SLIPCHENKO,
     TONY SMITH, SAROM SOK, JIE SONG, TETSUYA TAKETSUGU, SIMON WEBB,
     PENG XU, SOOHAENG YOO, FEDERICO ZAHARIEV

  ADDITIONAL CODE HAS BEEN PROVIDED BY COLLABORATORS IN OTHER GROUPS:
     IOWA STATE UNIVERSITY:
          JOE IVANIC, AARON WEST, LAIMUTIS BYTAUTAS, KLAUS RUEDENBERG
     UNIVERSITY OF TOKYO: KIMIHIKO HIRAO, TAKAHITO NAKAJIMA,
          TAKAO TSUNEDA, MUNEAKI KAMIYA, SUSUMU YANAGISAWA,
          KIYOSHI YAGI, MAHITO CHIBA, SEIKEN TOKURA, NAOAKI KAWAKAMI
     UNIVERSITY OF AARHUS: FRANK JENSEN
     UNIVERSITY OF IOWA: VISVALDAS KAIRYS, HUI LI
     NATIONAL INST. OF STANDARDS AND TECHNOLOGY: WALT STEVENS, DAVID GARMER
     UNIVERSITY OF PISA: BENEDETTA MENNUCCI, JACOPO TOMASI
     UNIVERSITY OF MEMPHIS: HENRY KURTZ, PRAKASHAN KORAMBATH
     UNIVERSITY OF ALBERTA: TOBY ZENG, MARIUSZ KLOBUKOWSKI
     UNIVERSITY OF NEW ENGLAND: MARK SPACKMAN
     MIE UNIVERSITY: HIROAKI UMEDA
     NAT. INST. OF ADVANCED INDUSTRIAL SCIENCE AND TECHNOLOGY: KAZUO KITAURA
     MICHIGAN STATE UNIVERSITY:
          KAROL KOWALSKI, MARTA WLOCH, JEFFREY GOUR, JESSE LUTZ,
          WEI LI, PIOTR PIECUCH
     UNIVERSITY OF SILESIA: MONIKA MUSIAL, STANISLAW KUCHARSKI
     FACULTES UNIVERSITAIRES NOTRE-DAME DE LA PAIX:
          OLIVIER QUINET, BENOIT CHAMPAGNE
     UNIVERSITY OF CALIFORNIA - SANTA BARBARA: BERNARD KIRTMAN
     INSTITUTE FOR MOLECULAR SCIENCE:
          KAZUYA ISHIMURA, MICHIO KATOUDA, AND SHIGERU NAGASE
     UNIVERSITY OF NOTRE DAME: ANNA POMOGAEVA, DAN CHIPMAN
     KYUSHU UNIVERSITY:
          HARUYUKI NAKANO,
          FENG LONG GU, JACEK KORCHOWIEC, MARCIN MAKOWSKI, AND YURIKO AOKI,
          HIROTOSHI MORI AND EISAKU MIYOSHI
     PENNSYLVANIA STATE UNIVERSITY:
          TZVETELIN IORDANOV, CHET SWALINA, JONATHAN SKONE,
          SHARON HAMMES-SCHIFFER
     WASEDA UNIVERSITY:
          MASATO KOBAYASHI, TOMOKO AKAMA, TSUGUKI TOUMA,
          TAKESHI YOSHIKAWA, YASUHIRO IKABATA, HIROMI NAKAI
     NANJING UNIVERSITY: SHUHUA LI
     UNIVERSITY OF NEBRASKA:
          PEIFENG SU, DEJUN SI, NANDUN THELLAMUREGE, YALI WANG, HUI LI
     UNIVERSITY OF ZURICH: ROBERTO PEVERATI, KIM BALDRIDGE
     N. COPERNICUS UNIVERSITY AND JACKSON STATE UNIVERSITY:
          MARIA BARYSZ
     UNIVERSITY OF COPENHAGEN: CASPER STEINMANN
     TOKYO INSTITUTE OF TECHNOLOGY: HIROYA NAKATA
     NAGOYA UNIVERSITY: YOSHIO NISHIMOTO, STEPHAN IRLE

 EXECUTION OF GAMESS BEGUN Mon Jul 25 11:15:11 2016

            ECHO OF THE FIRST FEW INPUT CARDS -
 INPUT CARD> $BASIS                                                                         
 INPUT CARD>   GBASIS=CCD                                                                   
 INPUT CARD> $END                                                                           
 INPUT CARD> $CONTRL                                                                        
 INPUT CARD>   SCFTYP=RHF                                                                   
 INPUT CARD>   RUNTYP=OPTIMIZE                                                              
 INPUT CARD>   LOCAL=RUEDNBRG                                                               
 INPUT CARD>   ISPHER=1                                                                     
 INPUT CARD> $END                                                                           
 INPUT CARD> $SYSTEM                                                                        
 INPUT CARD>   MWORDS=125                                                                   
 INPUT CARD> $END                                                                           
 INPUT CARD> $STATPT                                                                        
 INPUT CARD>   OPTTOL=1.0E-4                                                                
 INPUT CARD> $END                                                                           
 INPUT CARD> $GUESS                                                                         
 INPUT CARD>   GUESS=HUCKEL                                                                 
 INPUT CARD> $END                                                                           
 INPUT CARD> $DATA                                                                          
 INPUT CARD>CH4                                                                             
 INPUT CARD>Cnv 3                                                                           
 INPUT CARD>                                                                                
 INPUT CARD> C           6.0   0.0000000000   0.0000000000   0.6979883327                   
 INPUT CARD> H           1.0   0.0000000000   0.0000000000   1.7842268879                   
 INPUT CARD> H           1.0   1.0241365916   0.0000000000   0.3359282598                   
 INPUT CARD> $END                                                                           
  125000000 WORDS OF MEMORY AVAILABLE

     BASIS OPTIONS
     -------------
     GBASIS=CCD          IGAUSS=       0      POLAR=NONE    
     NDFUNC=       0     NFFUNC=       0     DIFFSP=       F
     NPFUNC=       0      DIFFS=       F     BASNAM=        


     RUN TITLE
     ---------
 CH4                                                                             

 THE POINT GROUP OF THE MOLECULE IS CNV     
 THE ORDER OF THE PRINCIPAL AXIS IS     3

 ATOM      ATOMIC                      COORDINATES (BOHR)
           CHARGE         X                   Y                   Z
 C           6.0     0.0000000000        0.0000000000        1.3190066914
 H           1.0     0.0000000000        0.0000000000        3.3716999181
 H           1.0    -0.9676687661        1.6760514677        0.6348123626
 H           1.0    -0.9676687661       -1.6760514677        0.6348123626
 H           1.0     1.9353375321        0.0000000000        0.6348123626

          INTERNUCLEAR DISTANCES (ANGS.)
          ------------------------------

                1 C          2 H          3 H          4 H          5 H     

   1 C       0.0000000    1.0862386 *  1.0862519 *  1.0862519 *  1.0862519 *
   2 H       1.0862386 *  0.0000000    1.7738164 *  1.7738164 *  1.7738164 *
   3 H       1.0862519 *  1.7738164 *  0.0000000    1.7738566 *  1.7738566 *
   4 H       1.0862519 *  1.7738164 *  1.7738566 *  0.0000000    1.7738566 *
   5 H       1.0862519 *  1.7738164 *  1.7738566 *  1.7738566 *  0.0000000  

  * ... LESS THAN  3.000


     ATOMIC BASIS SET
     ----------------
 THE CONTRACTED PRIMITIVE FUNCTIONS HAVE BEEN UNNORMALIZED
 THE CONTRACTED BASIS FUNCTIONS ARE NOW NORMALIZED TO UNITY

  SHELL TYPE  PRIMITIVE        EXPONENT          CONTRACTION COEFFICIENT(S)

 C         

      1   S       1          6665.0000000    0.000691583963
      1   S       2          1000.0000000    0.005325796153
      1   S       3           228.0000000    0.027060721042
      1   S       4            64.7100000    0.101656846141
      1   S       5            21.0600000    0.274574823617
      1   S       6             7.4950000    0.448294318924
      1   S       7             2.7970000    0.284902610715
      1   S       8             0.5215000    0.015194859206

      2   S       9          6665.0000000   -0.000293269653
      2   S      10          1000.0000000   -0.002318035474
      2   S      11           228.0000000   -0.011499786039
      2   S      12            64.7100000   -0.046826727010
      2   S      13            21.0600000   -0.128466168750
      2   S      14             7.4950000   -0.301266272463
      2   S      15             2.7970000   -0.255630702330
      2   S      16             0.5215000    1.093793361012

      3   S      17             0.1596000    1.000000000000

      4   P      18             9.4390000    0.056979251590
      4   P      19             2.0020000    0.313207211501
      4   P      20             0.5456000    0.760376741738

      5   P      21             0.1517000    1.000000000000

      6   D      22             0.5500000    1.000000000000

 H         

      7   S      23            13.0100000    0.033498726390
      7   S      24             1.9620000    0.234800801174
      7   S      25             0.4446000    0.813682957883

      8   S      26             0.1220000    1.000000000000

      9   P      27             0.7270000    1.000000000000

 H         

     16   S      28            13.0100000    0.033498726390
     16   S      29             1.9620000    0.234800801174
     16   S      30             0.4446000    0.813682957883

     17   S      31             0.1220000    1.000000000000

     18   P      32             0.7270000    1.000000000000

 TOTAL NUMBER OF BASIS SET SHELLS             =   18
 NUMBER OF CARTESIAN GAUSSIAN BASIS FUNCTIONS =   35
 NOTE: THIS RUN WILL RESTRICT THE MO VARIATION SPACE TO SPHERICAL HARMONICS.
 THE NUMBER OF ORBITALS KEPT IN THE VARIATIONAL SPACE WILL BE PRINTED LATER.
 NUMBER OF ELECTRONS                          =   10
 CHARGE OF MOLECULE                           =    0
 SPIN MULTIPLICITY                            =    1
 NUMBER OF OCCUPIED ORBITALS (ALPHA)          =    5
 NUMBER OF OCCUPIED ORBITALS (BETA )          =    5
 TOTAL NUMBER OF ATOMS                        =    5
 THE NUCLEAR REPULSION ENERGY IS       13.4817900223

     $CONTRL OPTIONS
     ---------------
 SCFTYP=RHF          RUNTYP=OPTIMIZE     EXETYP=RUN     
 MPLEVL=       0     CITYP =NONE         CCTYP =NONE         VBTYP =NONE    
 DFTTYP=NONE         TDDFT =NONE    
 MULT  =       1     ICHARG=       0     NZVAR =       0     COORD =UNIQUE  
 PP    =NONE         RELWFN=NONE         LOCAL =RUEDNBRG     NUMGRD=       F
 ISPHER=       1     NOSYM =       0     MAXIT =      30     UNITS =ANGS    
 PLTORB=       F     MOLPLT=       F     AIMPAC=       F     FRIEND=        
 NPRINT=       7     IREST =       0     GEOM  =INPUT   
 NORMF =       0     NORMP =       0     ITOL  =      20     ICUT  =       9
 INTTYP=BEST         GRDTYP=BEST         QMTTOL= 1.0E-06

     $SYSTEM OPTIONS
     ---------------
  REPLICATED MEMORY=   125000000 WORDS (ON EVERY NODE).
 DISTRIBUTED MEMDDI=           0 MILLION WORDS IN AGGREGATE,
 MEMDDI DISTRIBUTED OVER   1 PROCESSORS IS           0 WORDS/PROCESSOR.
 TOTAL MEMORY REQUESTED ON EACH PROCESSOR=   125000000 WORDS.
 TIMLIM=      525600.00 MINUTES, OR     365.0 DAYS.
 PARALL= F  BALTYP=  DLB     KDIAG=    0  COREFL= F
 MXSEQ2=     300 MXSEQ3=     150  mem10=         0

          ----------------
          PROPERTIES INPUT
          ----------------

     MOMENTS            FIELD           POTENTIAL          DENSITY
 IEMOM =       1   IEFLD =       0   IEPOT =       0   IEDEN =       0
 WHERE =COMASS     WHERE =NUCLEI     WHERE =NUCLEI     WHERE =NUCLEI  
 OUTPUT=BOTH       OUTPUT=BOTH       OUTPUT=BOTH       OUTPUT=BOTH    
 IEMINT=       0   IEFINT=       0                     IEDINT=       0
                                                       MORB  =       0
          EXTRAPOLATION IN EFFECT
          DIIS IN EFFECT
 ORBITAL PRINTING OPTION: NPREO=     1    35     2     1

     -------------------------------
     INTEGRAL TRANSFORMATION OPTIONS
     -------------------------------
     NWORD  =            0
     CUTOFF = 1.0E-09     MPTRAN =       0
     DIRTRF =       F     AOINTS =DUP     

          -----------------------------
          LOCALIZATION INPUT PARAMETERS
          -----------------------------
           LOCAL=RUEDNBRG      NOUTA=       1
          PRTLOC=       F      NOUTB=       0
          MAXLOC=     250     CVGLOC=1.00E-06
           FCORE=       T     SYMLOC=       F
          MOIDON=       F     EDCOMP=       F
          DIPDCM=       F      NPROT=       0
          QADDCM=       F     DEPRNT=       F
          POLNUM=       F     ORIENT=       F
          POLDYN=       F      VMTOL=1.50E-01
          NPRDTL=       2
          MOOUTA =      1

          ----------------------
          INTEGRAL INPUT OPTIONS
          ----------------------
 NOPK  =       1 NORDER=       0 SCHWRZ=       F

     ------------------------------------------
     THE POINT GROUP IS CNV, NAXIS= 3, ORDER= 6
     ------------------------------------------

 -- VARIATIONAL SPACE WILL BE RESTRICTED TO PURE SPHERICAL HARMONICS ONLY --
 AFTER EXCLUDING CONTAMINANT COMBINATIONS FROM THE CARTESIAN GAUSSIAN BASIS
 SET, THE NUMBER OF SPHERICAL HARMONICS KEPT IN THE VARIATION SPACE IS   34

     DIMENSIONS OF THE SYMMETRY SUBSPACES ARE
 A1  =   13     A2  =    1     E   =   10

 ..... DONE SETTING UP THE RUN .....
 STEP CPU TIME =     0.01 TOTAL CPU TIME =        0.0 (    0.0 MIN)
 TOTAL WALL CLOCK TIME=        0.0 SECONDS, CPU UTILIZATION IS  33.33%


          -----------------------------
          STATIONARY POINT LOCATION RUN
          -----------------------------

 OBTAINING INITIAL HESSIAN, HESS=GUESS   
 CARTESIAN COORDINATE OPTIMIZATION USING BADGER'S RULE FORCE CONSTANT GUESS

          PARAMETERS CONTROLLING GEOMETRY SEARCH ARE
          METHOD =QA                  UPHESS =BFGS    
          NNEG   =         0          NFRZ   =         0
          NSTEP  =        50          IFOLOW =         1
          HESS   =GUESS               RESTAR =         F
          IHREP  =         0          HSSEND =         F
          NPRT   =         0          NPUN   =         0
          OPTTOL = 1.000E-04          RMIN   = 1.500E-03
          RMAX   = 1.000E-01          RLIM   = 7.000E-02
          DXMAX  = 3.000E-01          PURIFY =         F
          MOVIE  =         F          TRUPD  =         T
          TRMAX  = 5.000E-01          TRMIN  = 5.000E-02
          ITBMAT =         5          STPT   =         F
          STSTEP = 1.000E-02          PROJCT=          T

 BEGINNING GEOMETRY SEARCH POINT NSERCH=   0 ...

 COORDINATES OF SYMMETRY UNIQUE ATOMS (ANGS)
   ATOM   CHARGE       X              Y              Z
 ------------------------------------------------------------
 C           6.0   0.0000000000   0.0000000000   0.6979883327
 H           1.0   0.0000000000   0.0000000000   1.7842268879
 H           1.0   1.0241365916   0.0000000000   0.3359282598
 COORDINATES OF ALL ATOMS ARE (ANGS)
   ATOM   CHARGE       X              Y              Z
 ------------------------------------------------------------
 C           6.0   0.0000000000   0.0000000000   0.6979883327
 H           1.0   0.0000000000   0.0000000000   1.7842268879
 H           1.0  -0.5120682958   0.8869283053   0.3359282598
 H           1.0  -0.5120682958  -0.8869283053   0.3359282598
 H           1.0   1.0241365916   0.0000000000   0.3359282598

          ********************
          1 ELECTRON INTEGRALS
          ********************
 ...... END OF ONE-ELECTRON INTEGRALS ......
 STEP CPU TIME =     0.00 TOTAL CPU TIME =        0.0 (    0.0 MIN)
 TOTAL WALL CLOCK TIME=        0.0 SECONDS, CPU UTILIZATION IS  33.33%

          -------------
          GUESS OPTIONS
          -------------
          GUESS =HUCKEL            NORB  =       0          NORDER=       0
          MIX   =       F          PRTMO =       F          PUNMO =       F
          TOLZ  = 1.0E-08          TOLE  = 1.0E-05
          SYMDEN=       F          PURIFY=       F

 INITIAL GUESS ORBITALS GENERATED BY HUCKEL   ROUTINE.
 HUCKEL GUESS REQUIRES     12811 WORDS.

 STATISTICS FOR GENERATION OF SYMMETRY ORBITAL -Q- MATRIX
 NUMBER OF CARTESIAN ATOMIC ORBITALS=         35
 NUMBER OF SPHERICAL CONTAMINANTS DROPPED=     1
 NUMBER OF LINEARLY DEPENDENT MOS DROPPED=     0
 TOTAL NUMBER OF MOS IN VARIATION SPACE=      34

 SYMMETRIES FOR INITIAL GUESS ORBITALS FOLLOW.   BOTH SET(S).
     5 ORBITALS ARE OCCUPIED (    1 CORE ORBITALS).
     2=?A1      3=?E       4=?E       5=?A1      6=?A1      7=?E       8=?E  
     9=?A1     10=A1      11=A1      12=A1      13=A1      14=A1      15=A1  
 ...... END OF INITIAL ORBITAL SELECTION ......
 STEP CPU TIME =     0.00 TOTAL CPU TIME =        0.0 (    0.0 MIN)
 TOTAL WALL CLOCK TIME=        0.0 SECONDS, CPU UTILIZATION IS  33.33%

                    ----------------------
                    AO INTEGRAL TECHNOLOGY
                    ----------------------
     S,P,L SHELL ROTATED AXIS INTEGRALS, REPROGRAMMED BY
        KAZUYA ISHIMURA (IMS) AND JOSE SIERRA (SYNSTAR).
     S,P,D,L SHELL ROTATED AXIS INTEGRALS PROGRAMMED BY
        KAZUYA ISHIMURA (INSTITUTE FOR MOLECULAR SCIENCE).
     S,P,D,F,G SHELL TO TOTAL QUARTET ANGULAR MOMENTUM SUM 5,
        ERIC PROGRAM BY GRAHAM FLETCHER (ELORET AND NASA ADVANCED
        SUPERCOMPUTING DIVISION, AMES RESEARCH CENTER).
     S,P,D,F,G,L SHELL GENERAL RYS QUADRATURE PROGRAMMED BY
        MICHEL DUPUIS (PACIFIC NORTHWEST NATIONAL LABORATORY).

          --------------------
          2 ELECTRON INTEGRALS
          --------------------

 THE -PK- OPTION IS OFF, THE INTEGRALS ARE NOT IN SUPERMATRIX FORM.
 STORING   15000 INTEGRALS/RECORD ON DISK, USING 12 BYTES/INTEGRAL.
 TWO ELECTRON INTEGRAL EVALUATION REQUIRES   90567 WORDS OF MEMORY.
 II,JST,KST,LST =  1  1  1  1 NREC =         1 INTLOC =    1
 II,JST,KST,LST =  2  1  1  1 NREC =         1 INTLOC =    2
 II,JST,KST,LST =  3  1  1  1 NREC =         1 INTLOC =    7
 II,JST,KST,LST =  4  1  1  1 NREC =         1 INTLOC =   22
 II,JST,KST,LST =  5  1  1  1 NREC =         1 INTLOC =   67
 II,JST,KST,LST =  6  1  1  1 NREC =         1 INTLOC =  214
 II,JST,KST,LST =  7  1  1  1 NREC =         1 INTLOC = 1189
 II,JST,KST,LST =  8  1  1  1 NREC =         1 INTLOC = 1867
 II,JST,KST,LST =  9  1  1  1 NREC =         1 INTLOC = 2713
 II,JST,KST,LST = 10  1  1  1 NREC =         1 INTLOC = 5597
 II,JST,KST,LST = 11  1  1  1 NREC =         1 INTLOC = 5597
 II,JST,KST,LST = 12  1  1  1 NREC =         1 INTLOC = 5597
 II,JST,KST,LST = 13  1  1  1 NREC =         1 INTLOC = 5597
 II,JST,KST,LST = 14  1  1  1 NREC =         1 INTLOC = 5597
 II,JST,KST,LST = 15  1  1  1 NREC =         1 INTLOC = 5597
 II,JST,KST,LST = 16  1  1  1 NREC =         1 INTLOC = 5597
 II,JST,KST,LST = 17  1  1  1 NREC =         1 INTLOC = 8792
 II,JST,KST,LST = 18  1  1  1 NREC =         1 INTLOC =13355
 TOTAL NUMBER OF NONZERO TWO-ELECTRON INTEGRALS =               38114
          3 INTEGRAL RECORDS WERE STORED ON DISK FILE  8.
  ...... END OF TWO-ELECTRON INTEGRALS .....
 STEP CPU TIME =     0.02 TOTAL CPU TIME =        0.0 (    0.0 MIN)
 TOTAL WALL CLOCK TIME=        0.1 SECONDS, CPU UTILIZATION IS  50.00%

          --------------------------
                 RHF SCF CALCULATION
          --------------------------

     NUCLEAR ENERGY =        13.4817900223
     MAXIT =   30     NPUNCH=    2
     EXTRAP=T  DAMP=F  SHIFT=F  RSTRCT=F  DIIS=T  DEM=F  SOSCF=F
     DENSITY MATRIX CONV=  1.00E-05
     MEMORY REQUIRED FOR RHF ITERS=     39730 WORDS.
 RHFCL F

 ITER EX DEM     TOTAL ENERGY        E CHANGE  DENSITY CHANGE    DIIS ERROR
          * * *   INITIATING DIIS PROCEDURE   * * *
   1  0  0      -40.1040325981   -40.1040325981   0.130188467   0.480755004
   2  1  0      -40.1932873976    -0.0892547995   0.047760386   0.051417614
   3  2  0      -40.1979689051    -0.0046815075   0.014942534   0.021663174
   4  3  0      -40.1986201255    -0.0006512204   0.004264763   0.003619701
   5  4  0      -40.1986550163    -0.0000348908   0.000351889   0.000289417
   6  5  0      -40.1986553552    -0.0000003389   0.000021304   0.000024807
   7  6  0      -40.1986553573    -0.0000000022   0.000002312   0.000002658
   8  7  0      -40.1986553574    -0.0000000000   0.000000109   0.000000135

          -----------------
          DENSITY CONVERGED
          -----------------
     TIME TO FORM FOCK OPERATORS=       0.0 SECONDS (       0.0 SEC/ITER)
     TIME TO SOLVE SCF EQUATIONS=       0.0 SECONDS (       0.0 SEC/ITER)

 FINAL RHF ENERGY IS      -40.1986553574 AFTER   8 ITERATIONS
 ...... END OF RHF CALCULATION ......
 STEP CPU TIME =     0.01 TOTAL CPU TIME =        0.0 (    0.0 MIN)
 TOTAL WALL CLOCK TIME=        0.1 SECONDS, CPU UTILIZATION IS  57.14%

     ----------------------------------------------------------------
     PROPERTY VALUES FOR THE RHF   SELF-CONSISTENT FIELD WAVEFUNCTION
     ----------------------------------------------------------------

          -----------------
          ENERGY COMPONENTS
          -----------------

         WAVEFUNCTION NORMALIZATION =       1.0000000000

                ONE ELECTRON ENERGY =     -79.7837372755
                TWO ELECTRON ENERGY =      26.1032918959
           NUCLEAR REPULSION ENERGY =      13.4817900223
                                      ------------------
                       TOTAL ENERGY =     -40.1986553574

 ELECTRON-ELECTRON POTENTIAL ENERGY =      26.1032918959
  NUCLEUS-ELECTRON POTENTIAL ENERGY =    -119.9082389441
   NUCLEUS-NUCLEUS POTENTIAL ENERGY =      13.4817900223
                                      ------------------
             TOTAL POTENTIAL ENERGY =     -80.3231570260
               TOTAL KINETIC ENERGY =      40.1245016686
                 VIRIAL RATIO (V/T) =       2.0018480900

          ---------------------------------------
          MULLIKEN AND LOWDIN POPULATION ANALYSES
          ---------------------------------------

     ATOMIC MULLIKEN POPULATION IN EACH MOLECULAR ORBITAL

                      1          2          3          4          5

                  2.000000   2.000000   2.000000   2.000000   2.000000

    1             1.999429   1.072581   1.021879   1.021879   1.021889
    2             0.000143   0.231869   0.005418   0.005418   0.722741
    3             0.000143   0.231850   0.164826   0.483642   0.085123
    4             0.000143   0.231850   0.164826   0.483642   0.085123
    5             0.000143   0.231850   0.643050   0.005418   0.085123

               ----- POPULATIONS IN EACH AO -----
                             MULLIKEN      LOWDIN
              1  C  1  S      2.00458     1.86682
              2  C  1  S      0.62786     0.45913
              3  C  1  S      0.43957     0.29640
              4  C  1  X      0.67750     0.60642
              5  C  1  Y      0.67750     0.60778
              6  C  1  Z      0.67750     0.60575
              7  C  1  X      0.33083     0.45170
              8  C  1  Y      0.33083     0.45259
              9  C  1  Z      0.33084     0.45126
             10  C  1 XX      0.01355     0.15056
             11  C  1 YY      0.00903     0.15056
             12  C  1 ZZ      0.00903     0.15592
             13  C  1 XY      0.00451     0.02587
             14  C  1 XZ      0.00451     0.01293
             15  C  1 YZ      0.00000     0.01293
             16  H  2  S      0.74855     0.60752
             17  H  2  S      0.18518     0.25026
             18  H  2  X      0.00542     0.01595
             19  H  2  Y      0.00542     0.01595
             20  H  2  Z      0.02103     0.03838
             21  H  3  S      0.74854     0.60188
             22  H  3  S      0.18518     0.24979
             23  H  3  X      0.00889     0.02035
             24  H  3  Y      0.01582     0.03029
             25  H  3  Z      0.00715     0.01789
             26  H  4  S      0.74854     0.60188
             27  H  4  S      0.18518     0.24979
             28  H  4  X      0.00889     0.02035
             29  H  4  Y      0.01582     0.03029
             30  H  4  Z      0.00715     0.01789
             31  H  5  S      0.74854     0.60526
             32  H  5  S      0.18518     0.25008
             33  H  5  X      0.01929     0.03554
             34  H  5  Y      0.00542     0.01595
             35  H  5  Z      0.00715     0.01809

          ----- MULLIKEN ATOMIC OVERLAP POPULATIONS -----
          (OFF-DIAGONAL ELEMENTS NEED TO BE MULTIPLIED BY 2)

             1           2           3           4           5

    1    4.4741049
    2    0.4158884   0.6163343
    3    0.4158883  -0.0222110   0.6163254
    4    0.4158883  -0.0222110  -0.0222093   0.6163254
    5    0.4158883  -0.0222110  -0.0222093  -0.0222093   0.6163254

          TOTAL MULLIKEN AND LOWDIN ATOMIC POPULATIONS
       ATOM         MULL.POP.    CHARGE          LOW.POP.     CHARGE
    1 C             6.137658   -0.137658         6.306612   -0.306612
    2 H             0.965590    0.034410         0.928061    0.071939
    3 H             0.965584    0.034416         0.920207    0.079793
    4 H             0.965584    0.034416         0.920207    0.079793
    5 H             0.965584    0.034416         0.924913    0.075087

          MULLIKEN SPHERICAL HARMONIC POPULATIONS
       ATOM           S       P       D      F      G      H      I    TOTAL
    1 C             3.07    3.03    0.04   0.00   0.00   0.00   0.00    6.14
    2 H             0.93    0.03    0.00   0.00   0.00   0.00   0.00    0.97
    3 H             0.93    0.03    0.00   0.00   0.00   0.00   0.00    0.97
    4 H             0.93    0.03    0.00   0.00   0.00   0.00   0.00    0.97
    5 H             0.93    0.03    0.00   0.00   0.00   0.00   0.00    0.97

          -------------------------------
          BOND ORDER AND VALENCE ANALYSIS     BOND ORDER THRESHOLD=0.050
          -------------------------------

                   BOND                       BOND                       BOND
  ATOM PAIR DIST  ORDER      ATOM PAIR DIST  ORDER      ATOM PAIR DIST  ORDER
    1   2  1.086  0.998        1   3  1.086  0.998        1   4  1.086  0.998
    1   5  1.086  0.998

                       TOTAL       BONDED        FREE
      ATOM            VALENCE     VALENCE     VALENCE
    1 C                 3.993       3.993      -0.000
    2 H                 0.985       0.985       0.000
    3 H                 0.985       0.985      -0.000
    4 H                 0.985       0.985      -0.000
    5 H                 0.985       0.985      -0.000

          ---------------------
          ELECTROSTATIC MOMENTS
          ---------------------

 POINT   1           X           Y           Z (BOHR)    CHARGE
                -0.000000    0.000000    1.319014       -0.00 (A.U.)
         DX          DY          DZ         /D/  (DEBYE)
    -0.000000    0.000000    0.000031    0.000031
 ...... END OF PROPERTY EVALUATION ......
 STEP CPU TIME =     0.01 TOTAL CPU TIME =        0.0 (    0.0 MIN)
 TOTAL WALL CLOCK TIME=        0.1 SECONDS, CPU UTILIZATION IS  71.43%

 BEGINNING ONE ELECTRON GRADIENT...
 ..... END OF 1-ELECTRON GRADIENT ......
 STEP CPU TIME =     0.00 TOTAL CPU TIME =        0.0 (    0.0 MIN)
 TOTAL WALL CLOCK TIME=        0.1 SECONDS, CPU UTILIZATION IS  62.50%

          ----------------------
          GRADIENT OF THE ENERGY
          ----------------------

 THE MINIMUM MEMORY REQUIRED FOR THIS RUN IS      83204 WORDS.
 USING    1058724 WORDS FOR 2E- DERIVATIVE INTEGRAL CONTRIBUTIONS.
 THE COARSE/FINE SCHWARZ SCREENINGS SKIPPED            0/           0 BLOCKS.
 THE NUMBER OF GRADIENT INTEGRAL BLOCKS COMPUTED WAS      4206
 ...... END OF 2-ELECTRON GRADIENT ......
 STEP CPU TIME =     0.02 TOTAL CPU TIME =        0.1 (    0.0 MIN)
 TOTAL WALL CLOCK TIME=        0.1 SECONDS, CPU UTILIZATION IS  77.78%

          NSERCH=  0     ENERGY=     -40.1986554

                                 -----------------------
                                 GRADIENT (HARTREE/BOHR)
                                 -----------------------
        ATOM     ZNUC       DE/DX         DE/DY         DE/DZ
 --------------------------------------------------------------
    1  C            6.0     0.0000000     0.0000000     0.0000021
    2  H            1.0     0.0000000     0.0000000    -0.0033243
    3  H            1.0     0.0015611    -0.0027040     0.0011074
    4  H            1.0     0.0015611     0.0027040     0.0011074
    5  H            1.0    -0.0031223     0.0000000     0.0011074

          MAXIMUM GRADIENT = 0.0033243    RMS GRADIENT = 0.0017122

 NSERCH:   0  E=      -40.1986553574  GRAD. MAX=  0.0033243  R.M.S.=  0.0017122

          FORCE CONSTANT MATRIX NOT UPDATED --- TAKING FIRST STEP
          MIN SEARCH, CORRECT HESSIAN, TRYING PURE NR STEP
               NR STEP HAS LENGTH         =   0.013372
          RADIUS OF STEP TAKEN=   0.01337  CURRENT TRUST RADIUS=   0.30000

 BEGINNING GEOMETRY SEARCH POINT NSERCH=   1 ...

 COORDINATES OF SYMMETRY UNIQUE ATOMS (ANGS)
   ATOM   CHARGE       X              Y              Z
 ------------------------------------------------------------
 C           6.0   0.0000000000   0.0000000000   0.6980276716
 H           1.0  -0.0000000000   0.0000000000   1.7878061971
 H           1.0   1.0274479708   0.0000000000   0.3347220438
 COORDINATES OF ALL ATOMS ARE (ANGS)
   ATOM   CHARGE       X              Y              Z
 ------------------------------------------------------------
 C           6.0   0.0000000000   0.0000000000   0.6980276716
 H           1.0  -0.0000000000   0.0000000000   1.7878061971
 H           1.0  -0.5137239854   0.8897960438   0.3347220438
 H           1.0  -0.5137239854  -0.8897960438   0.3347220438
 H           1.0   1.0274479708   0.0000000000   0.3347220438

          INTERNUCLEAR DISTANCES (ANGS.)
          ------------------------------

                1 C          2 H          3 H          4 H          5 H     

   1 C       0.0000000    1.0897785 *  1.0897891 *  1.0897891 *  1.0897891 *
   2 H       1.0897785 *  0.0000000    1.7796356 *  1.7796356 *  1.7796356 *
   3 H       1.0897891 *  1.7796356 *  0.0000000    1.7795921 *  1.7795921 *
   4 H       1.0897891 *  1.7796356 *  1.7795921 *  0.0000000    1.7795921 *
   5 H       1.0897891 *  1.7796356 *  1.7795921 *  1.7795921 *  0.0000000  

  * ... LESS THAN  3.000

 ...... END OF ONE-ELECTRON INTEGRALS ......
 STEP CPU TIME =     0.00 TOTAL CPU TIME =        0.1 (    0.0 MIN)
 TOTAL WALL CLOCK TIME=        0.1 SECONDS, CPU UTILIZATION IS  70.00%
 TOTAL NUMBER OF NONZERO TWO-ELECTRON INTEGRALS =               38114
          3 INTEGRAL RECORDS WERE STORED ON DISK FILE  8.
  ...... END OF TWO-ELECTRON INTEGRALS .....
 STEP CPU TIME =     0.01 TOTAL CPU TIME =        0.1 (    0.0 MIN)
 TOTAL WALL CLOCK TIME=        0.1 SECONDS, CPU UTILIZATION IS  80.00%

          --------------------------
                 RHF SCF CALCULATION
          --------------------------
     DENSITY MATRIX CONV=  1.00E-05
 RHFCL F

 ITER EX DEM     TOTAL ENERGY        E CHANGE  DENSITY CHANGE    DIIS ERROR
          * * *   INITIATING DIIS PROCEDURE   * * *
   1  0  0      -40.1987017754   -40.1987017754   0.001900746   0.002254075
   2  1  0      -40.1987087444    -0.0000069690   0.000426046   0.000562803
   3  2  0      -40.1987091992    -0.0000004548   0.000111588   0.000118122
   4  3  0      -40.1987092491    -0.0000000498   0.000009119   0.000014134
   5  4  0      -40.1987092497    -0.0000000006   0.000001266   0.000001436
   6  5  0      -40.1987092497    -0.0000000000   0.000000264   0.000000185

          -----------------
          DENSITY CONVERGED
          -----------------
     TIME TO FORM FOCK OPERATORS=       0.0 SECONDS (       0.0 SEC/ITER)
     TIME TO SOLVE SCF EQUATIONS=       0.0 SECONDS (       0.0 SEC/ITER)

 FINAL RHF ENERGY IS      -40.1987092497 AFTER   6 ITERATIONS
 ...... END OF RHF CALCULATION ......
 STEP CPU TIME =     0.00 TOTAL CPU TIME =        0.1 (    0.0 MIN)
 TOTAL WALL CLOCK TIME=        0.1 SECONDS, CPU UTILIZATION IS  72.73%
 ..... END OF 1-ELECTRON GRADIENT ......
 STEP CPU TIME =     0.01 TOTAL CPU TIME =        0.1 (    0.0 MIN)
 TOTAL WALL CLOCK TIME=        0.1 SECONDS, CPU UTILIZATION IS  81.82%
 ...... END OF 2-ELECTRON GRADIENT ......
 STEP CPU TIME =     0.02 TOTAL CPU TIME =        0.1 (    0.0 MIN)
 TOTAL WALL CLOCK TIME=        0.1 SECONDS, CPU UTILIZATION IS  84.62%

          NSERCH=  1     ENERGY=     -40.1987092

                                 -----------------------
                                 GRADIENT (HARTREE/BOHR)
                                 -----------------------
        ATOM     ZNUC       DE/DX         DE/DY         DE/DZ
 --------------------------------------------------------------
    1  C            6.0     0.0000000     0.0000000     0.0000198
    2  H            1.0     0.0000000     0.0000000    -0.0007265
    3  H            1.0     0.0003412    -0.0005910     0.0002356
    4  H            1.0     0.0003412     0.0005910     0.0002356
    5  H            1.0    -0.0006825     0.0000000     0.0002356

          MAXIMUM GRADIENT = 0.0007265    RMS GRADIENT = 0.0003734

 NSERCH:   1  E=      -40.1987092497  GRAD. MAX=  0.0007265  R.M.S.=  0.0003734

          HESSIAN UPDATED USING THE BFGS FORMULA
             ACTUAL ENERGY CHANGE WAS  -0.0000538923
          PREDICTED ENERGY CHANGE WAS  -0.0000443360 RATIO=  1.216
          MIN SEARCH, CORRECT HESSIAN, TRYING PURE NR STEP
               NR STEP HAS LENGTH         =   0.003748
          RADIUS OF STEP TAKEN=   0.00375  CURRENT TRUST RADIUS=   0.05000

 BEGINNING GEOMETRY SEARCH POINT NSERCH=   2 ...

 COORDINATES OF SYMMETRY UNIQUE ATOMS (ANGS)
   ATOM   CHARGE       X              Y              Z
 ------------------------------------------------------------
 C           6.0   0.0000000000   0.0000000000   0.6979205071
 H           1.0  -0.0000000000   0.0000000000   1.7887148478
 H           1.0   1.0284281347   0.0000000000   0.3344548817
 COORDINATES OF ALL ATOMS ARE (ANGS)
   ATOM   CHARGE       X              Y              Z
 ------------------------------------------------------------
 C           6.0   0.0000000000   0.0000000000   0.6979205071
 H           1.0  -0.0000000000   0.0000000000   1.7887148478
 H           1.0  -0.5142140674   0.8906448906   0.3344548817
 H           1.0  -0.5142140674  -0.8906448906   0.3344548817
 H           1.0   1.0284281347   0.0000000000   0.3344548817

          INTERNUCLEAR DISTANCES (ANGS.)
          ------------------------------

                1 C          2 H          3 H          4 H          5 H     

   1 C       0.0000000    1.0907943 *  1.0907666 *  1.0907666 *  1.0907666 *
   2 H       1.0907943 *  0.0000000    1.7811616 *  1.7811616 *  1.7811616 *
   3 H       1.0907666 *  1.7811616 *  0.0000000    1.7812898 *  1.7812898 *
   4 H       1.0907666 *  1.7811616 *  1.7812898 *  0.0000000    1.7812898 *
   5 H       1.0907666 *  1.7811616 *  1.7812898 *  1.7812898 *  0.0000000  

  * ... LESS THAN  3.000

 ...... END OF ONE-ELECTRON INTEGRALS ......
 STEP CPU TIME =     0.00 TOTAL CPU TIME =        0.1 (    0.0 MIN)
 TOTAL WALL CLOCK TIME=        0.1 SECONDS, CPU UTILIZATION IS  84.62%
 TOTAL NUMBER OF NONZERO TWO-ELECTRON INTEGRALS =               38114
          3 INTEGRAL RECORDS WERE STORED ON DISK FILE  8.
  ...... END OF TWO-ELECTRON INTEGRALS .....
 STEP CPU TIME =     0.01 TOTAL CPU TIME =        0.1 (    0.0 MIN)
 TOTAL WALL CLOCK TIME=        0.1 SECONDS, CPU UTILIZATION IS  85.71%

          --------------------------
                 RHF SCF CALCULATION
          --------------------------
     DENSITY MATRIX CONV=  1.00E-05
 RHFCL F

 ITER EX DEM     TOTAL ENERGY        E CHANGE  DENSITY CHANGE    DIIS ERROR
          * * *   INITIATING DIIS PROCEDURE   * * *
   1  0  0      -40.1987113898   -40.1987113898   0.000530287   0.000629123
   2  1  0      -40.1987119319    -0.0000005421   0.000118636   0.000156878
   3  2  0      -40.1987119674    -0.0000000355   0.000033854   0.000032325
   4  3  0      -40.1987119713    -0.0000000039   0.000002770   0.000004142
   5  4  0      -40.1987119714    -0.0000000000   0.000000422   0.000000366

          -----------------
          DENSITY CONVERGED
          -----------------
     TIME TO FORM FOCK OPERATORS=       0.0 SECONDS (       0.0 SEC/ITER)
     TIME TO SOLVE SCF EQUATIONS=       0.0 SECONDS (       0.0 SEC/ITER)

 FINAL RHF ENERGY IS      -40.1987119714 AFTER   5 ITERATIONS
 ...... END OF RHF CALCULATION ......
 STEP CPU TIME =     0.00 TOTAL CPU TIME =        0.1 (    0.0 MIN)
 TOTAL WALL CLOCK TIME=        0.2 SECONDS, CPU UTILIZATION IS  80.00%
 ..... END OF 1-ELECTRON GRADIENT ......
 STEP CPU TIME =     0.00 TOTAL CPU TIME =        0.1 (    0.0 MIN)
 TOTAL WALL CLOCK TIME=        0.2 SECONDS, CPU UTILIZATION IS  80.00%
 ...... END OF 2-ELECTRON GRADIENT ......
 STEP CPU TIME =     0.02 TOTAL CPU TIME =        0.1 (    0.0 MIN)
 TOTAL WALL CLOCK TIME=        0.2 SECONDS, CPU UTILIZATION IS  82.35%

          NSERCH=  2     ENERGY=     -40.1987120

                                 -----------------------
                                 GRADIENT (HARTREE/BOHR)
                                 -----------------------
        ATOM     ZNUC       DE/DX         DE/DY         DE/DZ
 --------------------------------------------------------------
    1  C            6.0     0.0000000     0.0000000    -0.0000553
    2  H            1.0     0.0000000     0.0000000    -0.0000004
    3  H            1.0     0.0000027    -0.0000047     0.0000186
    4  H            1.0     0.0000027     0.0000047     0.0000186
    5  H            1.0    -0.0000054     0.0000000     0.0000186

          MAXIMUM GRADIENT = 0.0000553    RMS GRADIENT = 0.0000167

 NSERCH:   2  E=      -40.1987119714  GRAD. MAX=  0.0000553  R.M.S.=  0.0000167


      ***** EQUILIBRIUM GEOMETRY LOCATED *****
 COORDINATES OF SYMMETRY UNIQUE ATOMS (ANGS)
   ATOM   CHARGE       X              Y              Z
 ------------------------------------------------------------
 C           6.0   0.0000000000   0.0000000000   0.6979205071
 H           1.0  -0.0000000000   0.0000000000   1.7887148478
 H           1.0   1.0284281347   0.0000000000   0.3344548817
 COORDINATES OF ALL ATOMS ARE (ANGS)
   ATOM   CHARGE       X              Y              Z
 ------------------------------------------------------------
 C           6.0   0.0000000000   0.0000000000   0.6979205071
 H           1.0  -0.0000000000   0.0000000000   1.7887148478
 H           1.0  -0.5142140674   0.8906448906   0.3344548817
 H           1.0  -0.5142140674  -0.8906448906   0.3344548817
 H           1.0   1.0284281347   0.0000000000   0.3344548817

          INTERNUCLEAR DISTANCES (ANGS.)
          ------------------------------

                1 C          2 H          3 H          4 H          5 H     

   1 C       0.0000000    1.0907943 *  1.0907666 *  1.0907666 *  1.0907666 *
   2 H       1.0907943 *  0.0000000    1.7811616 *  1.7811616 *  1.7811616 *
   3 H       1.0907666 *  1.7811616 *  0.0000000    1.7812898 *  1.7812898 *
   4 H       1.0907666 *  1.7811616 *  1.7812898 *  0.0000000    1.7812898 *
   5 H       1.0907666 *  1.7811616 *  1.7812898 *  1.7812898 *  0.0000000  

  * ... LESS THAN  3.000


          NUCLEAR ENERGY    =       13.4258627373
          ELECTRONIC ENERGY =      -53.6245747087
          TOTAL ENERGY      =      -40.1987119714

          ------------------
          MOLECULAR ORBITALS
          ------------------

                      1          2          3          4          5
                  -11.2166    -0.9417    -0.5424    -0.5424    -0.5423
                     A1         A1         E          E          A1  
    1  C  1  S   -1.002287   0.029338   0.000000   0.000000  -0.000001
    2  C  1  S   -0.004723  -0.365929   0.000000   0.000000   0.000024
    3  C  1  S    0.008201  -0.237913   0.000000   0.000000   0.000028
    4  C  1  X    0.000000   0.000000   0.423205   0.000000   0.000000
    5  C  1  Y    0.000000   0.000000   0.000000   0.423205   0.000000
    6  C  1  Z   -0.000000  -0.000016   0.000000   0.000000  -0.423205
    7  C  1  X    0.000000   0.000000   0.197834   0.000000   0.000000
    8  C  1  Y    0.000000   0.000000   0.000000   0.197834   0.000000
    9  C  1  Z    0.000000   0.000007   0.000000   0.000000  -0.197864
   10  C  1 XX   -0.000000   0.000000   0.019109   0.000000   0.013514
   11  C  1 YY   -0.000000   0.000000  -0.019109   0.000000   0.013514
   12  C  1 ZZ    0.000000  -0.000000   0.000000   0.000000  -0.027027
   13  C  1 XY    0.000000   0.000000   0.000000  -0.022066   0.000000
   14  C  1 XZ    0.000000   0.000000  -0.015596   0.000000   0.000000
   15  C  1 YZ    0.000000   0.000000   0.000000  -0.015596   0.000000
   16  H  2  S    0.000001  -0.184753   0.000000   0.000000  -0.388799
   17  H  2  S   -0.001229  -0.028548   0.000000   0.000000  -0.162559
   18  H  2  X    0.000000   0.000000   0.013079   0.000000   0.000000
   19  H  2  Y    0.000000   0.000000   0.000000   0.013079   0.000000
   20  H  2  Z   -0.000440   0.026156   0.000000   0.000000   0.022473
   21  H  3  S    0.000001  -0.184752  -0.183285   0.317458   0.129593
   22  H  3  S   -0.001229  -0.028539  -0.076616   0.132703   0.054185
   23  H  3  X    0.000207  -0.012331   0.005177   0.013685   0.005586
   24  H  3  Y   -0.000359   0.021358   0.013685  -0.010625  -0.009676
   25  H  3  Z    0.000147  -0.008717  -0.005585   0.009674  -0.009131
   26  H  4  S    0.000001  -0.184752  -0.183285  -0.317458   0.129593
   27  H  4  S   -0.001229  -0.028539  -0.076616  -0.132703   0.054185
   28  H  4  X    0.000207  -0.012331   0.005177  -0.013685   0.005586
   29  H  4  Y    0.000359  -0.021358  -0.013685  -0.010625   0.009676
   30  H  4  Z    0.000147  -0.008717  -0.005585  -0.009674  -0.009131
   31  H  5  S    0.000001  -0.184752   0.366569   0.000000   0.129593
   32  H  5  S   -0.001229  -0.028539   0.153233   0.000000   0.054185
   33  H  5  X   -0.000414   0.024662  -0.018526   0.000000  -0.011172
   34  H  5  Y    0.000000   0.000000   0.000000   0.013079   0.000000
   35  H  5  Z    0.000147  -0.008717   0.011171   0.000000  -0.009131

                      6          7          8          9         10
                    0.1929     0.2739     0.2739     0.2739     0.5895
                     A1         E          E          A1         A1  
    1  C  1  S    0.097413   0.000000   0.000000   0.000002   0.000023
    2  C  1  S   -0.073843   0.000000   0.000000   0.000025   0.000030
    3  C  1  S   -2.352399   0.000000   0.000000   0.000094  -0.000054
    4  C  1  X    0.000000  -0.298141   0.000000   0.000000   0.000000
    5  C  1  Y    0.000000   0.000000  -0.298141   0.000000   0.000000
    6  C  1  Z   -0.000020   0.000000   0.000000  -0.298151  -0.303277
    7  C  1  X    0.000000  -1.413706   0.000000   0.000000   0.000000
    8  C  1  Y    0.000000   0.000000  -1.413706   0.000000   0.000000
    9  C  1  Z   -0.000148   0.000000   0.000000  -1.413553   1.212492
   10  C  1 XX   -0.000002  -0.016478   0.000000   0.011648   0.062719
   11  C  1 YY   -0.000002   0.016478   0.000000   0.011648   0.062719
   12  C  1 ZZ    0.000005   0.000000   0.000000  -0.023297  -0.125437
   13  C  1 XY    0.000000   0.000000   0.019027   0.000000   0.000000
   14  C  1 XZ    0.000000   0.013446   0.000000   0.000000   0.000000
   15  C  1 YZ    0.000000   0.000000   0.013446   0.000000   0.000000
   16  H  2  S    0.010742   0.000000   0.000000   0.050446  -0.829860
   17  H  2  S    0.848005   0.000000   0.000000   2.264785   0.067963
   18  H  2  X    0.000000   0.000090   0.000000   0.000000   0.000000
   19  H  2  Y    0.000000   0.000000   0.000090   0.000000   0.000000
   20  H  2  Z   -0.013828   0.000000   0.000000  -0.030998  -0.015722
   21  H  3  S    0.010749  -0.023759   0.041152  -0.016829   0.276706
   22  H  3  S    0.847954  -1.067709   1.849327  -0.754952  -0.022718
   23  H  3  X    0.006519  -0.006825   0.011963  -0.004883  -0.007405
   24  H  3  Y   -0.011290   0.011963  -0.020639   0.008458   0.012826
   25  H  3  Z    0.004611  -0.004882   0.008457  -0.003371   0.026112
   26  H  4  S    0.010749  -0.023759  -0.041152  -0.016829   0.276706
   27  H  4  S    0.847954  -1.067709  -1.849327  -0.754952  -0.022718
   28  H  4  X    0.006519  -0.006825  -0.011963  -0.004883  -0.007405
   29  H  4  Y    0.011290  -0.011963  -0.020639  -0.008458  -0.012826
   30  H  4  Z    0.004611  -0.004882  -0.008457  -0.003371   0.026112
   31  H  5  S    0.010749   0.047519   0.000000  -0.016829   0.276706
   32  H  5  S    0.847954   2.135419   0.000000  -0.754952  -0.022718
   33  H  5  X   -0.013037  -0.027546   0.000000   0.009767   0.014810
   34  H  5  Y    0.000000   0.000000   0.000082   0.000000   0.000000
   35  H  5  Z    0.004611   0.009765   0.000000  -0.003371   0.026112

                     11         12         13         14         15
                    0.5895     0.5895     0.8888     0.8888     0.8888
                     E          E          A1         E          E   
    1  C  1  S    0.000000   0.000000  -0.000002   0.000000   0.000000
    2  C  1  S    0.000000   0.000000   0.000038   0.000000   0.000000
    3  C  1  S    0.000000   0.000000   0.000075   0.000000   0.000000
    4  C  1  X   -0.303278   0.000000   0.000000   0.838593   0.000000
    5  C  1  Y    0.000000  -0.303278   0.000000   0.000000   0.838593
    6  C  1  Z    0.000000   0.000000  -0.838620   0.000000   0.000000
    7  C  1  X    1.212910   0.000000   0.000000  -1.722055   0.000000
    8  C  1  Y    0.000000   1.212910   0.000000   0.000000  -1.722055
    9  C  1  Z    0.000000   0.000000   1.721941   0.000000   0.000000
   10  C  1 XX   -0.088703   0.000000  -0.169573  -0.239841   0.000000
   11  C  1 YY    0.088703   0.000000  -0.169573   0.239841   0.000000
   12  C  1 ZZ    0.000000   0.000000   0.339146   0.000000   0.000000
   13  C  1 XY    0.000000   0.102425   0.000000   0.000000   0.276944
   14  C  1 XZ    0.072404   0.000000   0.000000   0.195757   0.000000
   15  C  1 YZ    0.000000   0.072404   0.000000   0.000000   0.195757
   16  H  2  S    0.000000   0.000000   0.350311   0.000000   0.000000
   17  H  2  S    0.000000   0.000000  -1.806223   0.000000   0.000000
   18  H  2  X    0.031357   0.000000   0.000000   0.077645   0.000000
   19  H  2  Y    0.000000   0.031357   0.000000   0.000000   0.077645
   20  H  2  Z    0.000000   0.000000   0.301557   0.000000   0.000000
   21  H  3  S    0.391232  -0.677633  -0.116878   0.165176  -0.286093
   22  H  3  S   -0.031808   0.055094   0.602091  -0.851493   1.474829
   23  H  3  X    0.020915   0.018132   0.059587  -0.006653   0.145961
   24  H  3  Y    0.018132  -0.000022  -0.103208   0.145961  -0.175194
   25  H  3  Z   -0.007400   0.012816  -0.035507  -0.059572   0.103181
   26  H  4  S    0.391232   0.677633  -0.116878   0.165176   0.286093
   27  H  4  S   -0.031808  -0.055094   0.602091  -0.851493  -1.474829
   28  H  4  X    0.020915  -0.018132   0.059587  -0.006653  -0.145961
   29  H  4  Y   -0.018132  -0.000022   0.103208  -0.145961  -0.175194
   30  H  4  Z   -0.007400  -0.012816  -0.035507  -0.059572  -0.103181
   31  H  5  S   -0.782463   0.000000  -0.116878  -0.330351   0.000000
   32  H  5  S    0.063617   0.000000   0.602091   1.702986   0.000000
   33  H  5  X   -0.010491   0.000000  -0.119175  -0.259464   0.000000
   34  H  5  Y    0.000000   0.031384   0.000000   0.000000   0.077618
   35  H  5  Z    0.014799   0.000000  -0.035507   0.119143   0.000000

     ----------------------------------------------------------------
     PROPERTY VALUES FOR THE RHF   SELF-CONSISTENT FIELD WAVEFUNCTION
     ----------------------------------------------------------------

          -----------------
          ENERGY COMPONENTS
          -----------------

         WAVEFUNCTION NORMALIZATION =       1.0000000000

                ONE ELECTRON ENERGY =     -79.6784112517
                TWO ELECTRON ENERGY =      26.0538365430
           NUCLEAR REPULSION ENERGY =      13.4258627373
                                      ------------------
                       TOTAL ENERGY =     -40.1987119714

 ELECTRON-ELECTRON POTENTIAL ENERGY =      26.0538365430
  NUCLEUS-ELECTRON POTENTIAL ENERGY =    -119.7774048459
   NUCLEUS-NUCLEUS POTENTIAL ENERGY =      13.4258627373
                                      ------------------
             TOTAL POTENTIAL ENERGY =     -80.2977055656
               TOTAL KINETIC ENERGY =      40.0989935942
                 VIRIAL RATIO (V/T) =       2.0024868050

          ---------------------------------------
          MULLIKEN AND LOWDIN POPULATION ANALYSES
          ---------------------------------------

     ATOMIC MULLIKEN POPULATION IN EACH MOLECULAR ORBITAL

                      1          2          3          4          5

                  2.000000   2.000000   2.000000   2.000000   2.000000

    1             1.999431   1.079720   1.021433   1.021433   1.021470
    2             0.000142   0.230084   0.005327   0.005327   0.723264
    3             0.000142   0.230065   0.164870   0.483956   0.085089
    4             0.000142   0.230065   0.164870   0.483956   0.085089
    5             0.000142   0.230065   0.643500   0.005327   0.085089

               ----- POPULATIONS IN EACH AO -----
                             MULLIKEN      LOWDIN
              1  C  1  S      2.00452     1.86873
              2  C  1  S      0.62864     0.45885
              3  C  1  S      0.44600     0.29824
              4  C  1  X      0.67523     0.60434
              5  C  1  Y      0.67523     0.60569
              6  C  1  Z      0.67522     0.60366
              7  C  1  X      0.33271     0.45327
              8  C  1  Y      0.33271     0.45417
              9  C  1  Z      0.33275     0.45286
             10  C  1 XX      0.01350     0.15063
             11  C  1 YY      0.00900     0.15063
             12  C  1 ZZ      0.00900     0.15592
             13  C  1 XY      0.00450     0.02566
             14  C  1 XZ      0.00450     0.01281
             15  C  1 YZ      0.00000     0.01282
             16  H  2  S      0.74625     0.60651
             17  H  2  S      0.18628     0.25176
             18  H  2  X      0.00533     0.01562
             19  H  2  Y      0.00533     0.01562
             20  H  2  Z      0.02096     0.03808
             21  H  3  S      0.74626     0.60092
             22  H  3  S      0.18625     0.25128
             23  H  3  X      0.00880     0.02004
             24  H  3  Y      0.01575     0.03000
             25  H  3  Z      0.00706     0.01758
             26  H  4  S      0.74626     0.60092
             27  H  4  S      0.18625     0.25128
             28  H  4  X      0.00880     0.02004
             29  H  4  Y      0.01575     0.03000
             30  H  4  Z      0.00706     0.01758
             31  H  5  S      0.74626     0.60427
             32  H  5  S      0.18625     0.25157
             33  H  5  X      0.01922     0.03525
             34  H  5  Y      0.00533     0.01562
             35  H  5  Z      0.00706     0.01778

          ----- MULLIKEN ATOMIC OVERLAP POPULATIONS -----
          (OFF-DIAGONAL ELEMENTS NEED TO BE MULTIPLIED BY 2)

             1           2           3           4           5

    1    4.4828539
    2    0.4151515   0.6157323
    3    0.4151608  -0.0222463   0.6156844
    4    0.4151608  -0.0222463  -0.0222382   0.6156844
    5    0.4151608  -0.0222463  -0.0222382  -0.0222382   0.6156844

          TOTAL MULLIKEN AND LOWDIN ATOMIC POPULATIONS
       ATOM         MULL.POP.    CHARGE          LOW.POP.     CHARGE
    1 C             6.143488   -0.143488         6.308275   -0.308275
    2 H             0.964145    0.035855         0.927599    0.072401
    3 H             0.964122    0.035878         0.919823    0.080177
    4 H             0.964122    0.035878         0.919823    0.080177
    5 H             0.964122    0.035878         0.924482    0.075518

          MULLIKEN SPHERICAL HARMONIC POPULATIONS
       ATOM           S       P       D      F      G      H      I    TOTAL
    1 C             3.08    3.02    0.04   0.00   0.00   0.00   0.00    6.14
    2 H             0.93    0.03    0.00   0.00   0.00   0.00   0.00    0.96
    3 H             0.93    0.03    0.00   0.00   0.00   0.00   0.00    0.96
    4 H             0.93    0.03    0.00   0.00   0.00   0.00   0.00    0.96
    5 H             0.93    0.03    0.00   0.00   0.00   0.00   0.00    0.96

          -------------------------------
          BOND ORDER AND VALENCE ANALYSIS     BOND ORDER THRESHOLD=0.050
          -------------------------------

                   BOND                       BOND                       BOND
  ATOM PAIR DIST  ORDER      ATOM PAIR DIST  ORDER      ATOM PAIR DIST  ORDER
    1   2  1.091  0.998        1   3  1.091  0.998        1   4  1.091  0.998
    1   5  1.091  0.998

                       TOTAL       BONDED        FREE
      ATOM            VALENCE     VALENCE     VALENCE
    1 C                 3.992       3.992      -0.000
    2 H                 0.985       0.985      -0.000
    3 H                 0.985       0.985      -0.000
    4 H                 0.985       0.985      -0.000
    5 H                 0.985       0.985      -0.000

          ---------------------
          ELECTROSTATIC MOMENTS
          ---------------------

 POINT   1           X           Y           Z (BOHR)    CHARGE
                -0.000000    0.000000    1.318926       -0.00 (A.U.)
         DX          DY          DZ         /D/  (DEBYE)
    -0.000000    0.000000    0.000084    0.000084
 ...... END OF PROPERTY EVALUATION ......
 STEP CPU TIME =     0.01 TOTAL CPU TIME =        0.2 (    0.0 MIN)
 TOTAL WALL CLOCK TIME=        0.2 SECONDS, CPU UTILIZATION IS  83.33%
  $VIB   
          IVIB=   0 IATOM=   0 ICOORD=   0 E=      -40.1987119714
  0.000000000E+00 0.000000000E+00-5.532358730E-05 0.000000000E+00 0.000000000E+00
 -4.147752488E-07 2.723297232E-06-4.716889170E-06 1.857945417E-05 2.723297232E-06
  4.716889170E-06 1.857945417E-05-5.446594464E-06 0.000000000E+00 1.857945417E-05
 -4.515083418E-15 1.231086374E-14 8.427895193E-05
 ......END OF GEOMETRY SEARCH......
 STEP CPU TIME =     0.00 TOTAL CPU TIME =        0.2 (    0.0 MIN)
 TOTAL WALL CLOCK TIME=        0.2 SECONDS, CPU UTILIZATION IS  83.33%

          ---------------------------------------
          EDMISTON-RUEDENBERG ENERGY LOCALIZATION
          ---------------------------------------
          C.EDMISTON AND K.RUEDENBERG, REV.MOD.PHYS. 35, 457-465 (1963)

          --------------------
          2 ELECTRON INTEGRALS
          --------------------

 THE -PK- OPTION IS OFF, THE INTEGRALS ARE NOT IN SUPERMATRIX FORM.
 STORING   15000 INTEGRALS/RECORD ON DISK, USING 12 BYTES/INTEGRAL.
 TWO ELECTRON INTEGRAL EVALUATION REQUIRES   90567 WORDS OF MEMORY.
 II,JST,KST,LST =  1  1  1  1 NREC =         1 INTLOC =    1
 II,JST,KST,LST =  2  1  1  1 NREC =         1 INTLOC =    2
 II,JST,KST,LST =  3  1  1  1 NREC =         1 INTLOC =    7
 II,JST,KST,LST =  4  1  1  1 NREC =         1 INTLOC =   22
 II,JST,KST,LST =  5  1  1  1 NREC =         1 INTLOC =   67
 II,JST,KST,LST =  6  1  1  1 NREC =         1 INTLOC =  214
 II,JST,KST,LST =  7  1  1  1 NREC =         1 INTLOC = 1189
 II,JST,KST,LST =  8  1  1  1 NREC =         1 INTLOC = 1867
 II,JST,KST,LST =  9  1  1  1 NREC =         1 INTLOC = 2713
 II,JST,KST,LST = 10  1  1  1 NREC =         1 INTLOC = 5597
 II,JST,KST,LST = 11  1  1  1 NREC =         1 INTLOC =10238
 II,JST,KST,LST = 12  1  1  1 NREC =         2 INTLOC =  573
 II,JST,KST,LST = 13  1  1  1 NREC =         3 INTLOC = 6330
 II,JST,KST,LST = 14  1  1  1 NREC =         3 INTLOC =14995
 II,JST,KST,LST = 15  1  1  1 NREC =         4 INTLOC = 9685
 II,JST,KST,LST = 16  1  1  1 NREC =         7 INTLOC =  234
 II,JST,KST,LST = 17  1  1  1 NREC =         7 INTLOC =12915
 II,JST,KST,LST = 18  1  1  1 NREC =         8 INTLOC =11784
 TOTAL NUMBER OF NONZERO TWO-ELECTRON INTEGRALS =              164063
         11 INTEGRAL RECORDS WERE STORED ON DISK FILE  8.
  ...... END OF TWO-ELECTRON INTEGRALS .....
 STEP CPU TIME =     0.02 TOTAL CPU TIME =        0.2 (    0.0 MIN)
 TOTAL WALL CLOCK TIME=        0.2 SECONDS, CPU UTILIZATION IS  85.00%

     --------------------------------------------
     PARTIAL TWO ELECTRON INTEGRAL TRANSFORMATION
     --------------------------------------------

 NUMBER OF CORE MOLECULAR ORBITALS     =    1
 NUMBER OF OCCUPIED MOLECULAR ORBITALS =    5
 TOTAL NUMBER OF MOLECULAR ORBITALS    =    5
 TOTAL NUMBER OF ATOMIC ORBITALS       =   35
 THRESHOLD FOR KEEPING TRANSFORMED 2E- INTEGRALS = 1.000E-09
 AO INTEGRALS WILL BE READ IN FROM DISK...

 PLAN A: REQUIREMENTS FOR FULLY IN-MEMORY TRANSFORMATION:
 # OF WORDS AVAILABLE =            124997486
 # OF WORDS NEEDED    =               154397

 CHOOSING IN MEMORY PARTIAL TRANSFORMATION...
 TOTAL NUMBER OF TRANSFORMED 2E- INTEGRALS KEPT =           28
 ... END OF INTEGRAL TRANSFORMATION ...
 STEP CPU TIME =     0.00 TOTAL CPU TIME =        0.2 (    0.0 MIN)
 TOTAL WALL CLOCK TIME=        0.2 SECONDS, CPU UTILIZATION IS  85.00%

          ---------------------------------------
          EDMISTON-RUEDENBERG ENERGY LOCALIZATION
          ---------------------------------------
          C.EDMISTON AND K.RUEDENBERG, REV.MOD.PHYS. 35, 457-465 (1963)

 THIS LOCALIZATION REQUIRES     33844 WORDS OF MEMORY.
 THIS LOCALIZATION HAS   5 ORBITALS, OF WHICH   1 ARE FROZEN.

 INITIAL LOCALIZATION SUMS ARE
     DIAGONAL SUM D=        2.1037020883
      COULOMB SUM C=        7.5976561011
     EXCHANGE SUM X=        2.9479053454

 BEGINNING 2X2 JACOBI ROTATIONS...
          5 PAIR ROTATIONS WHEN CONVERGED TO    1.00E-01
          4 PAIR ROTATIONS WHEN CONVERGED TO    1.00E-02
          5 PAIR ROTATIONS WHEN CONVERGED TO    1.00E-03
          5 PAIR ROTATIONS WHEN CONVERGED TO    1.00E-04
          5 PAIR ROTATIONS WHEN CONVERGED TO    1.00E-05
          3 PAIR ROTATIONS WHEN CONVERGED TO    1.00E-06
         27 TOTAL PAIR ROTATIONS REQUIRED TO CONVERGE TO    1.00E-06

   FINAL LOCALIZATION SUMS ARE
     DIAGONAL SUM D=        2.7485647556
      COULOMB SUM C=        7.5976561011
     EXCHANGE SUM X=        2.9479053454
 FOCK OPERATOR FOR THE LOCALIZED ORBITALS IS

             1           2           3           4

    1   -0.6422078
    2    0.0998218  -0.6422077
    3   -0.0998217   0.0998216  -0.6422075
    4   -0.0998383   0.0998382  -0.0998381  -0.6421779

 EDMISTON-RUEDENBERG ENERGY LOCALIZED ORBITALS

                      1          2          3          4          5

    1  C  1  S   -1.002287   0.014669  -0.014669   0.014669   0.014668
    2  C  1  S   -0.004723  -0.182971   0.182971  -0.182971  -0.182944
    3  C  1  S    0.008201  -0.118964   0.118964  -0.118964  -0.118933
    4  C  1  X    0.000000   0.172773   0.345545   0.172773  -0.000000
    5  C  1  Y    0.000000  -0.299251  -0.000000   0.299251   0.000000
    6  C  1  Z   -0.000000   0.122161  -0.122162   0.122162  -0.366513
    7  C  1  X    0.000000   0.080765   0.161531   0.080766  -0.000000
    8  C  1  Y    0.000000  -0.139890  -0.000000   0.139890   0.000000
    9  C  1  Z    0.000000   0.057122  -0.057122   0.057122  -0.171351
   10  C  1 XX   -0.000000   0.003900   0.019504   0.003900   0.011703
   11  C  1 YY   -0.000000  -0.011702  -0.011702  -0.011702   0.011703
   12  C  1 ZZ    0.000000   0.007802  -0.007802   0.007802  -0.023407
   13  C  1 XY    0.000000   0.015603   0.000000  -0.015603  -0.000000
   14  C  1 XZ    0.000000  -0.006367  -0.012734  -0.006367   0.000000
   15  C  1 YZ    0.000000   0.011028   0.000000  -0.011028  -0.000000
   16  H  2  S    0.000001   0.019861  -0.019861   0.019861  -0.429086
   17  H  2  S   -0.001229   0.032653  -0.032653   0.032653  -0.155054
   18  H  2  X    0.000000   0.005340   0.010679   0.005340  -0.000000
   19  H  2  Y    0.000000  -0.009248  -0.000000   0.009248   0.000000
   20  H  2  Z   -0.000440   0.006590  -0.006590   0.006590   0.032540
   21  H  3  S    0.000001  -0.429089  -0.019865   0.019865   0.019854
   22  H  3  S   -0.001229  -0.155025  -0.032646   0.032646   0.032656
   23  H  3  X    0.000207  -0.015341   0.012005   0.004013  -0.001328
   24  H  3  Y   -0.000359   0.026572  -0.002298   0.011546   0.002300
   25  H  3  Z    0.000147  -0.010843  -0.002838   0.002838  -0.012267
   26  H  4  S    0.000001   0.019865  -0.019865  -0.429089   0.019854
   27  H  4  S   -0.001229   0.032646  -0.032646  -0.155025   0.032656
   28  H  4  X    0.000207   0.004013   0.012005  -0.015341  -0.001328
   29  H  4  Y    0.000359  -0.011546   0.002298  -0.026572  -0.002300
   30  H  4  Z    0.000147   0.002838  -0.002838  -0.010843  -0.012267
   31  H  5  S    0.000001   0.019865   0.429089   0.019865   0.019854
   32  H  5  S   -0.001229   0.032646   0.155025   0.032646   0.032656
   33  H  5  X   -0.000414   0.007993  -0.030683   0.007993   0.002655
   34  H  5  Y    0.000000  -0.009248  -0.000000   0.009248   0.000000
   35  H  5  Z    0.000147   0.002838   0.010843   0.002838  -0.012267
 ... DONE WITH ENERGY LOCALIZATION ...
 STEP CPU TIME =     0.00 TOTAL CPU TIME =        0.2 (    0.0 MIN)
 TOTAL WALL CLOCK TIME=        0.2 SECONDS, CPU UTILIZATION IS  85.00%
              1058784  WORDS OF DYNAMIC MEMORY USED
 EXECUTION OF GAMESS TERMINATED NORMALLY Mon Jul 25 11:15:11 2016
 DDI: 263640 bytes (0.3 MB / 0 MWords) used by master data server.

 ----------------------------------------
 CPU timing information for all processes
 ========================================
 0: 0.168 + 0.16 = 0.185
 ----------------------------------------
 ddikick.x: exited gracefully.
