----- GAMESS execution script 'rungms' -----
This job is running on host adm-106348-mac.local
under operating system Darwin at Wed Aug 10 21:55:51 BST 2016
Available scratch disk space (Kbyte units) at beginning of the job is
Filesystem 1024-blocks      Used Available Capacity  iused    ifree %iused  Mounted on
/dev/disk1   487219328 222137176 264826152    46% 55598292 66206538   46%   /
GAMESS temporary binary files will be written to /var/folders/4f/yfn5hhsj5qs66zvp9j1ymsshjvstmp/T/
GAMESS supplementary output files will be written to /var/folders/4f/yfn5hhsj5qs66zvp9j1ymsshjvstmp/T/
Copying input file pcseg-1.inp to your run's scratch directory...
The generated host list is
localhost

 Distributed Data Interface kickoff program.
 Initiating 1 compute processes on 1 nodes to run the following command:
 /Users/css/Development/fortran/gamess/gamess.00.x pcseg-1 

          ******************************************************
          *         GAMESS VERSION =  5 DEC 2014 (R1)          *
          *             FROM IOWA STATE UNIVERSITY             *
          * M.W.SCHMIDT, K.K.BALDRIDGE, J.A.BOATZ, S.T.ELBERT, *
          *   M.S.GORDON, J.H.JENSEN, S.KOSEKI, N.MATSUNAGA,   *
          *          K.A.NGUYEN, S.J.SU, T.L.WINDUS,           *
          *       TOGETHER WITH M.DUPUIS, J.A.MONTGOMERY       *
          *         J.COMPUT.CHEM.  14, 1347-1363(1993)        *
          **************** 64 BIT APPLE VERSION ****************

  SINCE 1993, STUDENTS AND POSTDOCS WORKING AT IOWA STATE UNIVERSITY
  AND ALSO IN THEIR VARIOUS JOBS AFTER LEAVING ISU HAVE MADE IMPORTANT
  CONTRIBUTIONS TO THE CODE:
     IVANA ADAMOVIC, CHRISTINE AIKENS, YURI ALEXEEV, POOJA ARORA,
     ANDREY ASADCHEV, ROB BELL, PRADIPTA BANDYOPADHYAY, JONATHAN BENTZ,
     BRETT BODE, KURT BRORSEN, CALEB CARLIN, GALINA CHABAN, WEI CHEN,
     CHEOL HO CHOI, PAUL DAY, ALBERT DEFUSCO, NUWAN DESILVA, TIM DUDLEY,
     DMITRI FEDOROV, GRAHAM FLETCHER, MARK FREITAG, KURT GLAESEMANN,
     DAN KEMP, GRANT MERRILL, NORIYUKI MINEZAWA, JONATHAN MULLIN,
     TAKESHI NAGATA, SEAN NEDD, HEATHER NETZLOFF, BOSILJKA NJEGIC, RYAN OLSON,
     MIKE PAK, SPENCER PRUITT, LUKE ROSKOP, JIM SHOEMAKER, LYUDMILA SLIPCHENKO,
     TONY SMITH, SAROM SOK, JIE SONG, TETSUYA TAKETSUGU, SIMON WEBB,
     PENG XU, SOOHAENG YOO, FEDERICO ZAHARIEV

  ADDITIONAL CODE HAS BEEN PROVIDED BY COLLABORATORS IN OTHER GROUPS:
     IOWA STATE UNIVERSITY:
          JOE IVANIC, AARON WEST, LAIMUTIS BYTAUTAS, KLAUS RUEDENBERG
     UNIVERSITY OF TOKYO: KIMIHIKO HIRAO, TAKAHITO NAKAJIMA,
          TAKAO TSUNEDA, MUNEAKI KAMIYA, SUSUMU YANAGISAWA,
          KIYOSHI YAGI, MAHITO CHIBA, SEIKEN TOKURA, NAOAKI KAWAKAMI
     UNIVERSITY OF AARHUS: FRANK JENSEN
     UNIVERSITY OF IOWA: VISVALDAS KAIRYS, HUI LI
     NATIONAL INST. OF STANDARDS AND TECHNOLOGY: WALT STEVENS, DAVID GARMER
     UNIVERSITY OF PISA: BENEDETTA MENNUCCI, JACOPO TOMASI
     UNIVERSITY OF MEMPHIS: HENRY KURTZ, PRAKASHAN KORAMBATH
     UNIVERSITY OF ALBERTA: TOBY ZENG, MARIUSZ KLOBUKOWSKI
     UNIVERSITY OF NEW ENGLAND: MARK SPACKMAN
     MIE UNIVERSITY: HIROAKI UMEDA
     NAT. INST. OF ADVANCED INDUSTRIAL SCIENCE AND TECHNOLOGY: KAZUO KITAURA
     MICHIGAN STATE UNIVERSITY:
          KAROL KOWALSKI, MARTA WLOCH, JEFFREY GOUR, JESSE LUTZ,
          WEI LI, PIOTR PIECUCH
     UNIVERSITY OF SILESIA: MONIKA MUSIAL, STANISLAW KUCHARSKI
     FACULTES UNIVERSITAIRES NOTRE-DAME DE LA PAIX:
          OLIVIER QUINET, BENOIT CHAMPAGNE
     UNIVERSITY OF CALIFORNIA - SANTA BARBARA: BERNARD KIRTMAN
     INSTITUTE FOR MOLECULAR SCIENCE:
          KAZUYA ISHIMURA, MICHIO KATOUDA, AND SHIGERU NAGASE
     UNIVERSITY OF NOTRE DAME: ANNA POMOGAEVA, DAN CHIPMAN
     KYUSHU UNIVERSITY:
          HARUYUKI NAKANO,
          FENG LONG GU, JACEK KORCHOWIEC, MARCIN MAKOWSKI, AND YURIKO AOKI,
          HIROTOSHI MORI AND EISAKU MIYOSHI
     PENNSYLVANIA STATE UNIVERSITY:
          TZVETELIN IORDANOV, CHET SWALINA, JONATHAN SKONE,
          SHARON HAMMES-SCHIFFER
     WASEDA UNIVERSITY:
          MASATO KOBAYASHI, TOMOKO AKAMA, TSUGUKI TOUMA,
          TAKESHI YOSHIKAWA, YASUHIRO IKABATA, HIROMI NAKAI
     NANJING UNIVERSITY: SHUHUA LI
     UNIVERSITY OF NEBRASKA:
          PEIFENG SU, DEJUN SI, NANDUN THELLAMUREGE, YALI WANG, HUI LI
     UNIVERSITY OF ZURICH: ROBERTO PEVERATI, KIM BALDRIDGE
     N. COPERNICUS UNIVERSITY AND JACKSON STATE UNIVERSITY:
          MARIA BARYSZ
     UNIVERSITY OF COPENHAGEN: CASPER STEINMANN
     TOKYO INSTITUTE OF TECHNOLOGY: HIROYA NAKATA
     NAGOYA UNIVERSITY: YOSHIO NISHIMOTO, STEPHAN IRLE

 EXECUTION OF GAMESS BEGUN Wed Aug 10 21:55:51 2016

            ECHO OF THE FIRST FEW INPUT CARDS -
 INPUT CARD> $BASIS                                                                         
 INPUT CARD>   GBASIS=PCseg-1                                                               
 INPUT CARD> $END                                                                           
 INPUT CARD> $CONTRL                                                                        
 INPUT CARD>   SCFTYP=RHF                                                                   
 INPUT CARD>   RUNTYP=OPTIMIZE                                                              
 INPUT CARD>   LOCAL=RUEDNBRG                                                               
 INPUT CARD>   ISPHER=1                                                                     
 INPUT CARD> $END                                                                           
 INPUT CARD> $SYSTEM                                                                        
 INPUT CARD>   MWORDS=125                                                                   
 INPUT CARD> $END                                                                           
 INPUT CARD> $STATPT                                                                        
 INPUT CARD>   OPTTOL=1.0E-4                                                                
 INPUT CARD> $END                                                                           
 INPUT CARD> $GUESS                                                                         
 INPUT CARD>   GUESS=HUCKEL                                                                 
 INPUT CARD> $END                                                                           
 INPUT CARD> $DATA                                                                          
 INPUT CARD>CH4                                                                             
 INPUT CARD>Cnv 3                                                                           
 INPUT CARD>                                                                                
 INPUT CARD> C           6.0   0.0000000000   0.0000000000   0.6979883327                   
 INPUT CARD> H           1.0   0.0000000000   0.0000000000   1.7842268879                   
 INPUT CARD> H           1.0   1.0241365916   0.0000000000   0.3359282598                   
 INPUT CARD> $END                                                                           
  125000000 WORDS OF MEMORY AVAILABLE

     BASIS OPTIONS
     -------------
     GBASIS=PCSEG-1      IGAUSS=       0      POLAR=NONE    
     NDFUNC=       0     NFFUNC=       0     DIFFSP=       F
     NPFUNC=       0      DIFFS=       F     BASNAM=        


     RUN TITLE
     ---------
 CH4                                                                             

 THE POINT GROUP OF THE MOLECULE IS CNV     
 THE ORDER OF THE PRINCIPAL AXIS IS     3

 ATOM      ATOMIC                      COORDINATES (BOHR)
           CHARGE         X                   Y                   Z
 C           6.0     0.0000000000        0.0000000000        1.3190066914
 H           1.0     0.0000000000        0.0000000000        3.3716999181
 H           1.0    -0.9676687661        1.6760514677        0.6348123626
 H           1.0    -0.9676687661       -1.6760514677        0.6348123626
 H           1.0     1.9353375321        0.0000000000        0.6348123626

          INTERNUCLEAR DISTANCES (ANGS.)
          ------------------------------

                1 C          2 H          3 H          4 H          5 H     

   1 C       0.0000000    1.0862386 *  1.0862519 *  1.0862519 *  1.0862519 *
   2 H       1.0862386 *  0.0000000    1.7738164 *  1.7738164 *  1.7738164 *
   3 H       1.0862519 *  1.7738164 *  0.0000000    1.7738566 *  1.7738566 *
   4 H       1.0862519 *  1.7738164 *  1.7738566 *  0.0000000    1.7738566 *
   5 H       1.0862519 *  1.7738164 *  1.7738566 *  1.7738566 *  0.0000000  

  * ... LESS THAN  3.000


     ATOMIC BASIS SET
     ----------------
 THE CONTRACTED PRIMITIVE FUNCTIONS HAVE BEEN UNNORMALIZED
 THE CONTRACTED BASIS FUNCTIONS ARE NOW NORMALIZED TO UNITY

  SHELL TYPE  PRIMITIVE        EXPONENT          CONTRACTION COEFFICIENT(S)

 C         

      1   S       1          1243.2000000    0.005630097702
      1   S       2           187.1450000    0.041950603854
      1   S       3            42.5126000    0.184664360492
      1   S       4            11.7393000    0.466557421368
      1   S       5             3.5054800    0.448234778316

      2   S       6             5.3908900   -0.148114817444
      2   S       7             0.4933410    1.051981714281

      3   S       8             0.1497410    1.000000000000

      4   P       9             9.1805600    0.063992052045
      4   P      10             1.9365800    0.333521296407
      4   P      11             0.5262960    0.741161730513

      5   P      12             0.1363190    1.000000000000

      6   D      13             0.8000000    1.000000000000

 H         

      7   S      14            12.2518000    0.037217389296
      7   S      15             1.8687100    0.253808206955
      7   S      16             0.4182080    0.797386763917

      8   S      17             0.1061000    1.000000000000

      9   P      18             1.0000000    1.000000000000

 H         

     16   S      19            12.2518000    0.037217389296
     16   S      20             1.8687100    0.253808206955
     16   S      21             0.4182080    0.797386763917

     17   S      22             0.1061000    1.000000000000

     18   P      23             1.0000000    1.000000000000

 TOTAL NUMBER OF BASIS SET SHELLS             =   18
 NUMBER OF CARTESIAN GAUSSIAN BASIS FUNCTIONS =   35
 NOTE: THIS RUN WILL RESTRICT THE MO VARIATION SPACE TO SPHERICAL HARMONICS.
 THE NUMBER OF ORBITALS KEPT IN THE VARIATIONAL SPACE WILL BE PRINTED LATER.
 NUMBER OF ELECTRONS                          =   10
 CHARGE OF MOLECULE                           =    0
 SPIN MULTIPLICITY                            =    1
 NUMBER OF OCCUPIED ORBITALS (ALPHA)          =    5
 NUMBER OF OCCUPIED ORBITALS (BETA )          =    5
 TOTAL NUMBER OF ATOMS                        =    5
 THE NUCLEAR REPULSION ENERGY IS       13.4817900223

     $CONTRL OPTIONS
     ---------------
 SCFTYP=RHF          RUNTYP=OPTIMIZE     EXETYP=RUN     
 MPLEVL=       0     CITYP =NONE         CCTYP =NONE         VBTYP =NONE    
 DFTTYP=NONE         TDDFT =NONE    
 MULT  =       1     ICHARG=       0     NZVAR =       0     COORD =UNIQUE  
 PP    =NONE         RELWFN=NONE         LOCAL =RUEDNBRG     NUMGRD=       F
 ISPHER=       1     NOSYM =       0     MAXIT =      30     UNITS =ANGS    
 PLTORB=       F     MOLPLT=       F     AIMPAC=       F     FRIEND=        
 NPRINT=       7     IREST =       0     GEOM  =INPUT   
 NORMF =       0     NORMP =       0     ITOL  =      20     ICUT  =       9
 INTTYP=BEST         GRDTYP=BEST         QMTTOL= 1.0E-06

     $SYSTEM OPTIONS
     ---------------
  REPLICATED MEMORY=   125000000 WORDS (ON EVERY NODE).
 DISTRIBUTED MEMDDI=           0 MILLION WORDS IN AGGREGATE,
 MEMDDI DISTRIBUTED OVER   1 PROCESSORS IS           0 WORDS/PROCESSOR.
 TOTAL MEMORY REQUESTED ON EACH PROCESSOR=   125000000 WORDS.
 TIMLIM=      525600.00 MINUTES, OR     365.0 DAYS.
 PARALL= F  BALTYP=  DLB     KDIAG=    0  COREFL= F
 MXSEQ2=     300 MXSEQ3=     150  mem10=         0

          ----------------
          PROPERTIES INPUT
          ----------------

     MOMENTS            FIELD           POTENTIAL          DENSITY
 IEMOM =       1   IEFLD =       0   IEPOT =       0   IEDEN =       0
 WHERE =COMASS     WHERE =NUCLEI     WHERE =NUCLEI     WHERE =NUCLEI  
 OUTPUT=BOTH       OUTPUT=BOTH       OUTPUT=BOTH       OUTPUT=BOTH    
 IEMINT=       0   IEFINT=       0                     IEDINT=       0
                                                       MORB  =       0
          EXTRAPOLATION IN EFFECT
          DIIS IN EFFECT
 ORBITAL PRINTING OPTION: NPREO=     1    35     2     1

     -------------------------------
     INTEGRAL TRANSFORMATION OPTIONS
     -------------------------------
     NWORD  =            0
     CUTOFF = 1.0E-09     MPTRAN =       0
     DIRTRF =       F     AOINTS =DUP     

          -----------------------------
          LOCALIZATION INPUT PARAMETERS
          -----------------------------
           LOCAL=RUEDNBRG      NOUTA=       1
          PRTLOC=       F      NOUTB=       0
          MAXLOC=     250     CVGLOC=1.00E-06
           FCORE=       T     SYMLOC=       F
          MOIDON=       F     EDCOMP=       F
          DIPDCM=       F      NPROT=       0
          QADDCM=       F     DEPRNT=       F
          POLNUM=       F     ORIENT=       F
          POLDYN=       F      VMTOL=1.50E-01
          NPRDTL=       2
          MOOUTA =      1

          ----------------------
          INTEGRAL INPUT OPTIONS
          ----------------------
 NOPK  =       1 NORDER=       0 SCHWRZ=       F

     ------------------------------------------
     THE POINT GROUP IS CNV, NAXIS= 3, ORDER= 6
     ------------------------------------------

 -- VARIATIONAL SPACE WILL BE RESTRICTED TO PURE SPHERICAL HARMONICS ONLY --
 AFTER EXCLUDING CONTAMINANT COMBINATIONS FROM THE CARTESIAN GAUSSIAN BASIS
 SET, THE NUMBER OF SPHERICAL HARMONICS KEPT IN THE VARIATION SPACE IS   34

     DIMENSIONS OF THE SYMMETRY SUBSPACES ARE
 A1  =   13     A2  =    1     E   =   10

 ..... DONE SETTING UP THE RUN .....
 STEP CPU TIME =     0.00 TOTAL CPU TIME =        0.0 (    0.0 MIN)
 TOTAL WALL CLOCK TIME=        0.0 SECONDS, CPU UTILIZATION IS   0.00%


          -----------------------------
          STATIONARY POINT LOCATION RUN
          -----------------------------

 OBTAINING INITIAL HESSIAN, HESS=GUESS   
 CARTESIAN COORDINATE OPTIMIZATION USING BADGER'S RULE FORCE CONSTANT GUESS

          PARAMETERS CONTROLLING GEOMETRY SEARCH ARE
          METHOD =QA                  UPHESS =BFGS    
          NNEG   =         0          NFRZ   =         0
          NSTEP  =        50          IFOLOW =         1
          HESS   =GUESS               RESTAR =         F
          IHREP  =         0          HSSEND =         F
          NPRT   =         0          NPUN   =         0
          OPTTOL = 1.000E-04          RMIN   = 1.500E-03
          RMAX   = 1.000E-01          RLIM   = 7.000E-02
          DXMAX  = 3.000E-01          PURIFY =         F
          MOVIE  =         F          TRUPD  =         T
          TRMAX  = 5.000E-01          TRMIN  = 5.000E-02
          ITBMAT =         5          STPT   =         F
          STSTEP = 1.000E-02          PROJCT=          T

 BEGINNING GEOMETRY SEARCH POINT NSERCH=   0 ...

 COORDINATES OF SYMMETRY UNIQUE ATOMS (ANGS)
   ATOM   CHARGE       X              Y              Z
 ------------------------------------------------------------
 C           6.0   0.0000000000   0.0000000000   0.6979883327
 H           1.0   0.0000000000   0.0000000000   1.7842268879
 H           1.0   1.0241365916   0.0000000000   0.3359282598
 COORDINATES OF ALL ATOMS ARE (ANGS)
   ATOM   CHARGE       X              Y              Z
 ------------------------------------------------------------
 C           6.0   0.0000000000   0.0000000000   0.6979883327
 H           1.0   0.0000000000   0.0000000000   1.7842268879
 H           1.0  -0.5120682958   0.8869283053   0.3359282598
 H           1.0  -0.5120682958  -0.8869283053   0.3359282598
 H           1.0   1.0241365916   0.0000000000   0.3359282598

          ********************
          1 ELECTRON INTEGRALS
          ********************
 ...... END OF ONE-ELECTRON INTEGRALS ......
 STEP CPU TIME =     0.00 TOTAL CPU TIME =        0.0 (    0.0 MIN)
 TOTAL WALL CLOCK TIME=        0.0 SECONDS, CPU UTILIZATION IS   0.00%

          -------------
          GUESS OPTIONS
          -------------
          GUESS =HUCKEL            NORB  =       0          NORDER=       0
          MIX   =       F          PRTMO =       F          PUNMO =       F
          TOLZ  = 1.0E-08          TOLE  = 1.0E-05
          SYMDEN=       F          PURIFY=       F

 INITIAL GUESS ORBITALS GENERATED BY HUCKEL   ROUTINE.
 HUCKEL GUESS REQUIRES     12811 WORDS.

 STATISTICS FOR GENERATION OF SYMMETRY ORBITAL -Q- MATRIX
 NUMBER OF CARTESIAN ATOMIC ORBITALS=         35
 NUMBER OF SPHERICAL CONTAMINANTS DROPPED=     1
 NUMBER OF LINEARLY DEPENDENT MOS DROPPED=     0
 TOTAL NUMBER OF MOS IN VARIATION SPACE=      34

 SYMMETRIES FOR INITIAL GUESS ORBITALS FOLLOW.   BOTH SET(S).
     5 ORBITALS ARE OCCUPIED (    1 CORE ORBITALS).
     2=?A1      3=?E       4=?E       5=?A1      6=?A1      7=?E       8=?E  
     9=?A1     10=A1      11=A1      12=A1      13=A1      14=A1      15=A1  
 ...... END OF INITIAL ORBITAL SELECTION ......
 STEP CPU TIME =     0.00 TOTAL CPU TIME =        0.0 (    0.0 MIN)
 TOTAL WALL CLOCK TIME=        0.0 SECONDS, CPU UTILIZATION IS   0.00%

                    ----------------------
                    AO INTEGRAL TECHNOLOGY
                    ----------------------
     S,P,L SHELL ROTATED AXIS INTEGRALS, REPROGRAMMED BY
        KAZUYA ISHIMURA (IMS) AND JOSE SIERRA (SYNSTAR).
     S,P,D,L SHELL ROTATED AXIS INTEGRALS PROGRAMMED BY
        KAZUYA ISHIMURA (INSTITUTE FOR MOLECULAR SCIENCE).
     S,P,D,F,G SHELL TO TOTAL QUARTET ANGULAR MOMENTUM SUM 5,
        ERIC PROGRAM BY GRAHAM FLETCHER (ELORET AND NASA ADVANCED
        SUPERCOMPUTING DIVISION, AMES RESEARCH CENTER).
     S,P,D,F,G,L SHELL GENERAL RYS QUADRATURE PROGRAMMED BY
        MICHEL DUPUIS (PACIFIC NORTHWEST NATIONAL LABORATORY).

          --------------------
          2 ELECTRON INTEGRALS
          --------------------

 THE -PK- OPTION IS OFF, THE INTEGRALS ARE NOT IN SUPERMATRIX FORM.
 STORING   15000 INTEGRALS/RECORD ON DISK, USING 12 BYTES/INTEGRAL.
 TWO ELECTRON INTEGRAL EVALUATION REQUIRES   90567 WORDS OF MEMORY.
 II,JST,KST,LST =  1  1  1  1 NREC =         1 INTLOC =    1
 II,JST,KST,LST =  2  1  1  1 NREC =         1 INTLOC =    2
 II,JST,KST,LST =  3  1  1  1 NREC =         1 INTLOC =    7
 II,JST,KST,LST =  4  1  1  1 NREC =         1 INTLOC =   22
 II,JST,KST,LST =  5  1  1  1 NREC =         1 INTLOC =   67
 II,JST,KST,LST =  6  1  1  1 NREC =         1 INTLOC =  214
 II,JST,KST,LST =  7  1  1  1 NREC =         1 INTLOC = 1189
 II,JST,KST,LST =  8  1  1  1 NREC =         1 INTLOC = 1867
 II,JST,KST,LST =  9  1  1  1 NREC =         1 INTLOC = 2713
 II,JST,KST,LST = 10  1  1  1 NREC =         1 INTLOC = 5597
 II,JST,KST,LST = 11  1  1  1 NREC =         1 INTLOC = 5597
 II,JST,KST,LST = 12  1  1  1 NREC =         1 INTLOC = 5597
 II,JST,KST,LST = 13  1  1  1 NREC =         1 INTLOC = 5597
 II,JST,KST,LST = 14  1  1  1 NREC =         1 INTLOC = 5597
 II,JST,KST,LST = 15  1  1  1 NREC =         1 INTLOC = 5597
 II,JST,KST,LST = 16  1  1  1 NREC =         1 INTLOC = 5597
 II,JST,KST,LST = 17  1  1  1 NREC =         1 INTLOC = 8792
 II,JST,KST,LST = 18  1  1  1 NREC =         1 INTLOC =13355
 TOTAL NUMBER OF NONZERO TWO-ELECTRON INTEGRALS =               38114
          3 INTEGRAL RECORDS WERE STORED ON DISK FILE  8.
  ...... END OF TWO-ELECTRON INTEGRALS .....
 STEP CPU TIME =     0.03 TOTAL CPU TIME =        0.0 (    0.0 MIN)
 TOTAL WALL CLOCK TIME=        0.0 SECONDS, CPU UTILIZATION IS  75.00%

          --------------------------
                 RHF SCF CALCULATION
          --------------------------

     NUCLEAR ENERGY =        13.4817900223
     MAXIT =   30     NPUNCH=    2
     EXTRAP=T  DAMP=F  SHIFT=F  RSTRCT=F  DIIS=T  DEM=F  SOSCF=F
     DENSITY MATRIX CONV=  1.00E-05
     MEMORY REQUIRED FOR RHF ITERS=     39730 WORDS.
 RHFCL F

 ITER EX DEM     TOTAL ENERGY        E CHANGE  DENSITY CHANGE    DIIS ERROR
          * * *   INITIATING DIIS PROCEDURE   * * *
   1  0  0      -40.0907783265   -40.0907783265   0.138119742   0.422612954
   2  1  0      -40.1826740153    -0.0918956887   0.046418984   0.050866829
   3  2  0      -40.1871916127    -0.0045175974   0.017350346   0.020166610
   4  3  0      -40.1878401261    -0.0006485134   0.005033346   0.003125577
   5  4  0      -40.1878723653    -0.0000322392   0.000439750   0.000265844
   6  5  0      -40.1878727107    -0.0000003454   0.000029851   0.000022675
   7  6  0      -40.1878727130    -0.0000000023   0.000002942   0.000002636
   8  7  0      -40.1878727130    -0.0000000000   0.000000125   0.000000120

          -----------------
          DENSITY CONVERGED
          -----------------
     TIME TO FORM FOCK OPERATORS=       0.0 SECONDS (       0.0 SEC/ITER)
     TIME TO SOLVE SCF EQUATIONS=       0.0 SECONDS (       0.0 SEC/ITER)

 FINAL RHF ENERGY IS      -40.1878727130 AFTER   8 ITERATIONS
 ...... END OF RHF CALCULATION ......
 STEP CPU TIME =     0.00 TOTAL CPU TIME =        0.0 (    0.0 MIN)
 TOTAL WALL CLOCK TIME=        0.0 SECONDS, CPU UTILIZATION IS  75.00%

     ----------------------------------------------------------------
     PROPERTY VALUES FOR THE RHF   SELF-CONSISTENT FIELD WAVEFUNCTION
     ----------------------------------------------------------------

          -----------------
          ENERGY COMPONENTS
          -----------------

         WAVEFUNCTION NORMALIZATION =       1.0000000000

                ONE ELECTRON ENERGY =     -79.7677784513
                TWO ELECTRON ENERGY =      26.0981157160
           NUCLEAR REPULSION ENERGY =      13.4817900223
                                      ------------------
                       TOTAL ENERGY =     -40.1878727130

 ELECTRON-ELECTRON POTENTIAL ENERGY =      26.0981157160
  NUCLEUS-ELECTRON POTENTIAL ENERGY =    -119.9648490806
   NUCLEUS-NUCLEUS POTENTIAL ENERGY =      13.4817900223
                                      ------------------
             TOTAL POTENTIAL ENERGY =     -80.3849433422
               TOTAL KINETIC ENERGY =      40.1970706292
                 VIRIAL RATIO (V/T) =       1.9997711794

          ---------------------------------------
          MULLIKEN AND LOWDIN POPULATION ANALYSES
          ---------------------------------------

     ATOMIC MULLIKEN POPULATION IN EACH MOLECULAR ORBITAL

                      1          2          3          4          5

                  2.000000   2.000000   2.000000   2.000000   2.000000

    1             1.998777   1.164068   1.063495   1.063495   1.063501
    2             0.000306   0.208997   0.002913   0.002913   0.696543
    3             0.000306   0.208978   0.157055   0.465340   0.079985
    4             0.000306   0.208978   0.157055   0.465340   0.079985
    5             0.000306   0.208978   0.619482   0.002913   0.079985

               ----- POPULATIONS IN EACH AO -----
                             MULLIKEN      LOWDIN
              1  C  1  S      1.99603     1.97557
              2  C  1  S      0.68882     0.36132
              3  C  1  S      0.47800     0.30641
              4  C  1  X      0.69568     0.63711
              5  C  1  Y      0.69568     0.63824
              6  C  1  Z      0.69569     0.63657
              7  C  1  X      0.35809     0.44841
              8  C  1  Y      0.35809     0.44887
              9  C  1  Z      0.35809     0.44819
             10  C  1 XX      0.00973     0.15092
             11  C  1 YY      0.00648     0.15092
             12  C  1 ZZ      0.00648     0.15388
             13  C  1 XY      0.00324     0.01434
             14  C  1 XZ      0.00324     0.00713
             15  C  1 YZ      0.00000     0.00717
             16  H  2  S      0.78035     0.65242
             17  H  2  S      0.11115     0.21356
             18  H  2  X      0.00291     0.00852
             19  H  2  Y      0.00291     0.00852
             20  H  2  Z      0.01435     0.02317
             21  H  3  S      0.78034     0.64935
             22  H  3  S      0.11115     0.21343
             23  H  3  X      0.00545     0.01150
             24  H  3  Y      0.01054     0.01790
             25  H  3  Z      0.00418     0.00992
             26  H  4  S      0.78034     0.64935
             27  H  4  S      0.11115     0.21343
             28  H  4  X      0.00545     0.01150
             29  H  4  Y      0.01054     0.01790
             30  H  4  Z      0.00418     0.00992
             31  H  5  S      0.78034     0.65119
             32  H  5  S      0.11115     0.21351
             33  H  5  X      0.01308     0.02131
             34  H  5  Y      0.00291     0.00852
             35  H  5  Z      0.00418     0.01003

          ----- MULLIKEN ATOMIC OVERLAP POPULATIONS -----
          (OFF-DIAGONAL ELEMENTS NEED TO BE MULTIPLIED BY 2)

             1           2           3           4           5

    1    4.7151810
    2    0.4095397   0.5602184
    3    0.4095382  -0.0193620   0.5602076
    4    0.4095382  -0.0193620  -0.0193598   0.5602076
    5    0.4095382  -0.0193620  -0.0193598  -0.0193598   0.5602076

          TOTAL MULLIKEN AND LOWDIN ATOMIC POPULATIONS
       ATOM         MULL.POP.    CHARGE          LOW.POP.     CHARGE
    1 C             6.353335   -0.353335         6.385057   -0.385057
    2 H             0.911672    0.088328         0.906194    0.093806
    3 H             0.911664    0.088336         0.902096    0.097904
    4 H             0.911664    0.088336         0.902096    0.097904
    5 H             0.911664    0.088336         0.904558    0.095442

          MULLIKEN SPHERICAL HARMONIC POPULATIONS
       ATOM           S       P       D      F      G      H      I    TOTAL
    1 C             3.16    3.16    0.03   0.00   0.00   0.00   0.00    6.35
    2 H             0.89    0.02    0.00   0.00   0.00   0.00   0.00    0.91
    3 H             0.89    0.02    0.00   0.00   0.00   0.00   0.00    0.91
    4 H             0.89    0.02    0.00   0.00   0.00   0.00   0.00    0.91
    5 H             0.89    0.02    0.00   0.00   0.00   0.00   0.00    0.91

          -------------------------------
          BOND ORDER AND VALENCE ANALYSIS     BOND ORDER THRESHOLD=0.050
          -------------------------------

                   BOND                       BOND                       BOND
  ATOM PAIR DIST  ORDER      ATOM PAIR DIST  ORDER      ATOM PAIR DIST  ORDER
    1   2  1.086  0.990        1   3  1.086  0.990        1   4  1.086  0.990
    1   5  1.086  0.990

                       TOTAL       BONDED        FREE
      ATOM            VALENCE     VALENCE     VALENCE
    1 C                 3.962       3.962      -0.000
    2 H                 0.971       0.971      -0.000
    3 H                 0.971       0.971      -0.000
    4 H                 0.971       0.971      -0.000
    5 H                 0.971       0.971      -0.000

          ---------------------
          ELECTROSTATIC MOMENTS
          ---------------------

 POINT   1           X           Y           Z (BOHR)    CHARGE
                -0.000000    0.000000    1.319014       -0.00 (A.U.)
         DX          DY          DZ         /D/  (DEBYE)
    -0.000000    0.000000    0.000035    0.000035
 ...... END OF PROPERTY EVALUATION ......
 STEP CPU TIME =     0.02 TOTAL CPU TIME =        0.0 (    0.0 MIN)
 TOTAL WALL CLOCK TIME=        0.0 SECONDS, CPU UTILIZATION IS 100.00%

 BEGINNING ONE ELECTRON GRADIENT...
 ..... END OF 1-ELECTRON GRADIENT ......
 STEP CPU TIME =     0.00 TOTAL CPU TIME =        0.0 (    0.0 MIN)
 TOTAL WALL CLOCK TIME=        0.0 SECONDS, CPU UTILIZATION IS 100.00%

          ----------------------
          GRADIENT OF THE ENERGY
          ----------------------

 THE MINIMUM MEMORY REQUIRED FOR THIS RUN IS      77399 WORDS.
 USING    1052919 WORDS FOR 2E- DERIVATIVE INTEGRAL CONTRIBUTIONS.
 THE COARSE/FINE SCHWARZ SCREENINGS SKIPPED            0/           0 BLOCKS.
 THE NUMBER OF GRADIENT INTEGRAL BLOCKS COMPUTED WAS      4206
 ...... END OF 2-ELECTRON GRADIENT ......
 STEP CPU TIME =     0.01 TOTAL CPU TIME =        0.1 (    0.0 MIN)
 TOTAL WALL CLOCK TIME=        0.1 SECONDS, CPU UTILIZATION IS  85.71%

          NSERCH=  0     ENERGY=     -40.1878727

                                 -----------------------
                                 GRADIENT (HARTREE/BOHR)
                                 -----------------------
        ATOM     ZNUC       DE/DX         DE/DY         DE/DZ
 --------------------------------------------------------------
    1  C            6.0     0.0000000     0.0000000     0.0000013
    2  H            1.0     0.0000000     0.0000000     0.0009792
    3  H            1.0    -0.0004674     0.0008096    -0.0003268
    4  H            1.0    -0.0004674    -0.0008096    -0.0003268
    5  H            1.0     0.0009349     0.0000000    -0.0003268

          MAXIMUM GRADIENT = 0.0009792    RMS GRADIENT = 0.0005100

 NSERCH:   0  E=      -40.1878727130  GRAD. MAX=  0.0009792  R.M.S.=  0.0005100

          FORCE CONSTANT MATRIX NOT UPDATED --- TAKING FIRST STEP
          MIN SEARCH, CORRECT HESSIAN, TRYING PURE NR STEP
               NR STEP HAS LENGTH         =   0.003986
          RADIUS OF STEP TAKEN=   0.00399  CURRENT TRUST RADIUS=   0.30000

 BEGINNING GEOMETRY SEARCH POINT NSERCH=   1 ...

 COORDINATES OF SYMMETRY UNIQUE ATOMS (ANGS)
   ATOM   CHARGE       X              Y              Z
 ------------------------------------------------------------
 C           6.0  -0.0000000000  -0.0000000000   0.6980293619
 H           1.0   0.0000000000  -0.0000000000   1.7832157083
 H           1.0   1.0231182126   0.0000000000   0.3362516433
 COORDINATES OF ALL ATOMS ARE (ANGS)
   ATOM   CHARGE       X              Y              Z
 ------------------------------------------------------------
 C           6.0  -0.0000000000  -0.0000000000   0.6980293619
 H           1.0   0.0000000000  -0.0000000000   1.7832157083
 H           1.0  -0.5115591063   0.8860463632   0.3362516433
 H           1.0  -0.5115591063  -0.8860463632   0.3362516433
 H           1.0   1.0231182126   0.0000000000   0.3362516433

          INTERNUCLEAR DISTANCES (ANGS.)
          ------------------------------

                1 C          2 H          3 H          4 H          5 H     

   1 C       0.0000000    1.0851863 *  1.0851977 *  1.0851977 *  1.0851977 *
   2 H       1.0851863 *  0.0000000    1.7721388 *  1.7721388 *  1.7721388 *
   3 H       1.0851977 *  1.7721388 *  0.0000000    1.7720927 *  1.7720927 *
   4 H       1.0851977 *  1.7721388 *  1.7720927 *  0.0000000    1.7720927 *
   5 H       1.0851977 *  1.7721388 *  1.7720927 *  1.7720927 *  0.0000000  

  * ... LESS THAN  3.000

 ...... END OF ONE-ELECTRON INTEGRALS ......
 STEP CPU TIME =     0.01 TOTAL CPU TIME =        0.1 (    0.0 MIN)
 TOTAL WALL CLOCK TIME=        0.1 SECONDS, CPU UTILIZATION IS 100.00%
 TOTAL NUMBER OF NONZERO TWO-ELECTRON INTEGRALS =               38114
          3 INTEGRAL RECORDS WERE STORED ON DISK FILE  8.
  ...... END OF TWO-ELECTRON INTEGRALS .....
 STEP CPU TIME =     0.00 TOTAL CPU TIME =        0.1 (    0.0 MIN)
 TOTAL WALL CLOCK TIME=        0.1 SECONDS, CPU UTILIZATION IS  87.50%

          --------------------------
                 RHF SCF CALCULATION
          --------------------------
     DENSITY MATRIX CONV=  1.00E-05
 RHFCL F

 ITER EX DEM     TOTAL ENERGY        E CHANGE  DENSITY CHANGE    DIIS ERROR
          * * *   INITIATING DIIS PROCEDURE   * * *
   1  0  0      -40.1878768460   -40.1878768460   0.000611553   0.000497195
   2  1  0      -40.1878774807    -0.0000006347   0.000147255   0.000211393
   3  2  0      -40.1878775285    -0.0000000478   0.000032187   0.000033081
   4  3  0      -40.1878775330    -0.0000000045   0.000003624   0.000003994
   5  4  0      -40.1878775331    -0.0000000001   0.000000510   0.000000390

          -----------------
          DENSITY CONVERGED
          -----------------
     TIME TO FORM FOCK OPERATORS=       0.0 SECONDS (       0.0 SEC/ITER)
     TIME TO SOLVE SCF EQUATIONS=       0.0 SECONDS (       0.0 SEC/ITER)

 FINAL RHF ENERGY IS      -40.1878775331 AFTER   5 ITERATIONS
 ...... END OF RHF CALCULATION ......
 STEP CPU TIME =     0.01 TOTAL CPU TIME =        0.1 (    0.0 MIN)
 TOTAL WALL CLOCK TIME=        0.1 SECONDS, CPU UTILIZATION IS 100.00%
 ..... END OF 1-ELECTRON GRADIENT ......
 STEP CPU TIME =     0.00 TOTAL CPU TIME =        0.1 (    0.0 MIN)
 TOTAL WALL CLOCK TIME=        0.1 SECONDS, CPU UTILIZATION IS  88.89%
 ...... END OF 2-ELECTRON GRADIENT ......
 STEP CPU TIME =     0.01 TOTAL CPU TIME =        0.1 (    0.0 MIN)
 TOTAL WALL CLOCK TIME=        0.1 SECONDS, CPU UTILIZATION IS  90.00%

          NSERCH=  1     ENERGY=     -40.1878775

                                 -----------------------
                                 GRADIENT (HARTREE/BOHR)
                                 -----------------------
        ATOM     ZNUC       DE/DX         DE/DY         DE/DZ
 --------------------------------------------------------------
    1  C            6.0     0.0000000     0.0000000     0.0000219
    2  H            1.0     0.0000000     0.0000000     0.0002183
    3  H            1.0    -0.0001043     0.0001807    -0.0000801
    4  H            1.0    -0.0001043    -0.0001807    -0.0000801
    5  H            1.0     0.0002086     0.0000000    -0.0000801

          MAXIMUM GRADIENT = 0.0002183    RMS GRADIENT = 0.0001149

 NSERCH:   1  E=      -40.1878775331  GRAD. MAX=  0.0002183  R.M.S.=  0.0001149

          HESSIAN UPDATED USING THE BFGS FORMULA
             ACTUAL ENERGY CHANGE WAS  -0.0000048200
          PREDICTED ENERGY CHANGE WAS  -0.0000039338 RATIO=  1.225
          MIN SEARCH, CORRECT HESSIAN, TRYING PURE NR STEP
               NR STEP HAS LENGTH         =   0.001228
          RADIUS OF STEP TAKEN=   0.00123  CURRENT TRUST RADIUS=   0.05000

 BEGINNING GEOMETRY SEARCH POINT NSERCH=   2 ...

 COORDINATES OF SYMMETRY UNIQUE ATOMS (ANGS)
   ATOM   CHARGE       X              Y              Z
 ------------------------------------------------------------
 C           6.0  -0.0000000000   0.0000000000   0.6979096821
 H           1.0  -0.0000000000  -0.0000000000   1.7828211623
 H           1.0   1.0228840628   0.0000000000   0.3364230519
 COORDINATES OF ALL ATOMS ARE (ANGS)
   ATOM   CHARGE       X              Y              Z
 ------------------------------------------------------------
 C           6.0  -0.0000000000   0.0000000000   0.6979096821
 H           1.0  -0.0000000000  -0.0000000000   1.7828211623
 H           1.0  -0.5114420314   0.8858435835   0.3364230519
 H           1.0  -0.5114420314  -0.8858435835   0.3364230519
 H           1.0   1.0228840628   0.0000000000   0.3364230519

          INTERNUCLEAR DISTANCES (ANGS.)
          ------------------------------

                1 C          2 H          3 H          4 H          5 H     

   1 C       0.0000000    1.0849115 *  1.0848799 *  1.0848799 *  1.0848799 *
   2 H       1.0849115 *  0.0000000    1.7715415 *  1.7715415 *  1.7715415 *
   3 H       1.0848799 *  1.7715415 *  0.0000000    1.7716872 *  1.7716872 *
   4 H       1.0848799 *  1.7715415 *  1.7716872 *  0.0000000    1.7716872 *
   5 H       1.0848799 *  1.7715415 *  1.7716872 *  1.7716872 *  0.0000000  

  * ... LESS THAN  3.000

 ...... END OF ONE-ELECTRON INTEGRALS ......
 STEP CPU TIME =     0.00 TOTAL CPU TIME =        0.1 (    0.0 MIN)
 TOTAL WALL CLOCK TIME=        0.1 SECONDS, CPU UTILIZATION IS  90.00%
 TOTAL NUMBER OF NONZERO TWO-ELECTRON INTEGRALS =               38114
          3 INTEGRAL RECORDS WERE STORED ON DISK FILE  8.
  ...... END OF TWO-ELECTRON INTEGRALS .....
 STEP CPU TIME =     0.01 TOTAL CPU TIME =        0.1 (    0.0 MIN)
 TOTAL WALL CLOCK TIME=        0.1 SECONDS, CPU UTILIZATION IS 100.00%

          --------------------------
                 RHF SCF CALCULATION
          --------------------------
     DENSITY MATRIX CONV=  1.00E-05
 RHFCL F

 ITER EX DEM     TOTAL ENERGY        E CHANGE  DENSITY CHANGE    DIIS ERROR
          * * *   INITIATING DIIS PROCEDURE   * * *
   1  0  0      -40.1878777186   -40.1878777186   0.000178320   0.000143765
   2  1  0      -40.1878777768    -0.0000000582   0.000043567   0.000060944
   3  2  0      -40.1878777811    -0.0000000043   0.000011357   0.000012060
   4  3  0      -40.1878777816    -0.0000000004   0.000002028   0.000001047
   5  4  0      -40.1878777816    -0.0000000000   0.000000482   0.000000189

          -----------------
          DENSITY CONVERGED
          -----------------
     TIME TO FORM FOCK OPERATORS=       0.0 SECONDS (       0.0 SEC/ITER)
     TIME TO SOLVE SCF EQUATIONS=       0.0 SECONDS (       0.0 SEC/ITER)

 FINAL RHF ENERGY IS      -40.1878777816 AFTER   5 ITERATIONS
 ...... END OF RHF CALCULATION ......
 STEP CPU TIME =     0.00 TOTAL CPU TIME =        0.1 (    0.0 MIN)
 TOTAL WALL CLOCK TIME=        0.1 SECONDS, CPU UTILIZATION IS  90.91%
 ..... END OF 1-ELECTRON GRADIENT ......
 STEP CPU TIME =     0.01 TOTAL CPU TIME =        0.1 (    0.0 MIN)
 TOTAL WALL CLOCK TIME=        0.1 SECONDS, CPU UTILIZATION IS 100.00%
 ...... END OF 2-ELECTRON GRADIENT ......
 STEP CPU TIME =     0.01 TOTAL CPU TIME =        0.1 (    0.0 MIN)
 TOTAL WALL CLOCK TIME=        0.1 SECONDS, CPU UTILIZATION IS  92.31%

          NSERCH=  2     ENERGY=     -40.1878778

                                 -----------------------
                                 GRADIENT (HARTREE/BOHR)
                                 -----------------------
        ATOM     ZNUC       DE/DX         DE/DY         DE/DZ
 --------------------------------------------------------------
    1  C            6.0     0.0000000     0.0000000    -0.0000655
    2  H            1.0     0.0000000     0.0000000     0.0000080
    3  H            1.0    -0.0000007     0.0000012     0.0000192
    4  H            1.0    -0.0000007    -0.0000012     0.0000192
    5  H            1.0     0.0000014     0.0000000     0.0000192

          MAXIMUM GRADIENT = 0.0000655    RMS GRADIENT = 0.0000191

 NSERCH:   2  E=      -40.1878777816  GRAD. MAX=  0.0000655  R.M.S.=  0.0000191


      ***** EQUILIBRIUM GEOMETRY LOCATED *****
 COORDINATES OF SYMMETRY UNIQUE ATOMS (ANGS)
   ATOM   CHARGE       X              Y              Z
 ------------------------------------------------------------
 C           6.0  -0.0000000000   0.0000000000   0.6979096821
 H           1.0  -0.0000000000  -0.0000000000   1.7828211623
 H           1.0   1.0228840628   0.0000000000   0.3364230519
 COORDINATES OF ALL ATOMS ARE (ANGS)
   ATOM   CHARGE       X              Y              Z
 ------------------------------------------------------------
 C           6.0  -0.0000000000   0.0000000000   0.6979096821
 H           1.0  -0.0000000000  -0.0000000000   1.7828211623
 H           1.0  -0.5114420314   0.8858435835   0.3364230519
 H           1.0  -0.5114420314  -0.8858435835   0.3364230519
 H           1.0   1.0228840628   0.0000000000   0.3364230519

          INTERNUCLEAR DISTANCES (ANGS.)
          ------------------------------

                1 C          2 H          3 H          4 H          5 H     

   1 C       0.0000000    1.0849115 *  1.0848799 *  1.0848799 *  1.0848799 *
   2 H       1.0849115 *  0.0000000    1.7715415 *  1.7715415 *  1.7715415 *
   3 H       1.0848799 *  1.7715415 *  0.0000000    1.7716872 *  1.7716872 *
   4 H       1.0848799 *  1.7715415 *  1.7716872 *  0.0000000    1.7716872 *
   5 H       1.0848799 *  1.7715415 *  1.7716872 *  1.7716872 *  0.0000000  

  * ... LESS THAN  3.000


          NUCLEAR ENERGY    =       13.4987004810
          ELECTRONIC ENERGY =      -53.6865782625
          TOTAL ENERGY      =      -40.1878777816

          ------------------
          MOLECULAR ORBITALS
          ------------------

                      1          2          3          4          5
                  -11.2008    -0.9453    -0.5469    -0.5469    -0.5468
                     A1         A1         E          E          A1  
    1  C  1  S   -0.995147   0.206920   0.000000   0.000000  -0.000015
    2  C  1  S   -0.023371  -0.394264   0.000000   0.000000   0.000032
    3  C  1  S    0.010483  -0.256016   0.000000   0.000000   0.000025
    4  C  1  X    0.000000   0.000000  -0.434088   0.000000   0.000000
    5  C  1  Y    0.000000   0.000000   0.000000  -0.434088   0.000000
    6  C  1  Z   -0.000000  -0.000019   0.000000   0.000000  -0.434089
    7  C  1  X    0.000000   0.000000  -0.218901   0.000000   0.000000
    8  C  1  Y    0.000000   0.000000   0.000000  -0.218901   0.000000
    9  C  1  Z    0.000000   0.000004   0.000000   0.000000  -0.218926
   10  C  1 XX   -0.000000  -0.000001  -0.017566   0.000000   0.012422
   11  C  1 YY   -0.000000  -0.000001   0.017566   0.000000   0.012422
   12  C  1 ZZ    0.000000   0.000002   0.000000   0.000000  -0.024845
   13  C  1 XY    0.000000   0.000000   0.000000   0.020284   0.000000
   14  C  1 XZ    0.000000   0.000000   0.014336   0.000000   0.000000
   15  C  1 YZ    0.000000   0.000000   0.000000   0.014336   0.000000
   16  H  2  S   -0.000087  -0.185560   0.000000   0.000000  -0.410063
   17  H  2  S   -0.001543  -0.013859   0.000000   0.000000  -0.112629
   18  H  2  X    0.000000   0.000000  -0.009662   0.000000   0.000000
   19  H  2  Y    0.000000   0.000000   0.000000  -0.009662   0.000000
   20  H  2  Z    0.000097   0.019812   0.000000   0.000000   0.019077
   21  H  3  S   -0.000087  -0.185557   0.193307  -0.334817   0.136682
   22  H  3  S   -0.001543  -0.013849   0.053074  -0.091927   0.037543
   23  H  3  X   -0.000046  -0.009340  -0.003273  -0.011063   0.004516
   24  H  3  Y    0.000079   0.016177  -0.011063   0.009501  -0.007821
   25  H  3  Z   -0.000032  -0.006602   0.004515  -0.007820  -0.006471
   26  H  4  S   -0.000087  -0.185557   0.193307   0.334817   0.136682
   27  H  4  S   -0.001543  -0.013849   0.053074   0.091927   0.037543
   28  H  4  X   -0.000046  -0.009340  -0.003273   0.011063   0.004516
   29  H  4  Y   -0.000079  -0.016177   0.011063   0.009501   0.007821
   30  H  4  Z   -0.000032  -0.006602   0.004515   0.007820  -0.006471
   31  H  5  S   -0.000087  -0.185557  -0.386614   0.000000   0.136682
   32  H  5  S   -0.001543  -0.013849  -0.106148   0.000000   0.037543
   33  H  5  X    0.000091   0.018679   0.015888   0.000000  -0.009031
   34  H  5  Y    0.000000   0.000000   0.000000  -0.009660   0.000000
   35  H  5  Z   -0.000032  -0.006602  -0.009029   0.000000  -0.006471

                      6          7          8          9         10
                    0.1689     0.2449     0.2449     0.2449     0.5455
                     A1         E          E          A1         A1  
    1  C  1  S   -0.118943   0.000000   0.000000  -0.000012   0.000009
    2  C  1  S    0.067170   0.000000   0.000000   0.000027   0.000019
    3  C  1  S    2.158470   0.000000   0.000000   0.000130  -0.000122
    4  C  1  X    0.000000  -0.264601   0.000000   0.000000   0.000000
    5  C  1  Y    0.000000   0.000000  -0.264601   0.000000   0.000000
    6  C  1  Z    0.000023   0.000000   0.000000  -0.264622  -0.282110
    7  C  1  X    0.000000  -1.375801   0.000000   0.000000   0.000000
    8  C  1  Y    0.000000   0.000000  -1.375801   0.000000   0.000000
    9  C  1  Z    0.000154   0.000000   0.000000  -1.375666   1.496921
   10  C  1 XX    0.000001   0.004613   0.000000  -0.003264   0.037593
   11  C  1 YY    0.000001  -0.004613   0.000000  -0.003264   0.037593
   12  C  1 ZZ   -0.000001   0.000000   0.000000   0.006528  -0.075186
   13  C  1 XY    0.000000   0.000000  -0.005327   0.000000   0.000000
   14  C  1 XZ    0.000000  -0.003766   0.000000   0.000000   0.000000
   15  C  1 YZ    0.000000   0.000000  -0.003766   0.000000   0.000000
   16  H  2  S   -0.010954   0.000000   0.000000   0.013551  -0.829237
   17  H  2  S   -0.778435   0.000000   0.000000   2.424065  -0.335284
   18  H  2  X    0.000000  -0.003402   0.000000   0.000000   0.000000
   19  H  2  Y    0.000000   0.000000  -0.003402   0.000000   0.000000
   20  H  2  Z   -0.002524   0.000000   0.000000   0.005078   0.002355
   21  H  3  S   -0.010959  -0.006367   0.011027  -0.004528   0.276499
   22  H  3  S   -0.778359  -1.142779   1.979352  -0.808062   0.111722
   23  H  3  X    0.001190  -0.001520  -0.003266   0.001334  -0.002911
   24  H  3  Y   -0.002061  -0.003266   0.002251  -0.002310   0.005041
   25  H  3  Z    0.000840   0.001333  -0.002308  -0.002465   0.018798
   26  H  4  S   -0.010959  -0.006367  -0.011027  -0.004528   0.276499
   27  H  4  S   -0.778359  -1.142779  -1.979352  -0.808062   0.111722
   28  H  4  X    0.001190  -0.001520   0.003266   0.001334  -0.002911
   29  H  4  Y    0.002061   0.003266   0.002251   0.002310  -0.005041
   30  H  4  Z    0.000840   0.001333   0.002308  -0.002465   0.018798
   31  H  5  S   -0.010959   0.012733   0.000000  -0.004528   0.276499
   32  H  5  S   -0.778359   2.285559   0.000000  -0.808062   0.111722
   33  H  5  X   -0.002380   0.004136   0.000000  -0.002667   0.005821
   34  H  5  Y    0.000000   0.000000  -0.003405   0.000000   0.000000
   35  H  5  Z    0.000840  -0.002665   0.000000  -0.002465   0.018798

                     11         12         13         14         15
                    0.5456     0.5456     0.8984     0.8985     0.8985
                     E          E          A1         E          E   
    1  C  1  S    0.000000   0.000000   0.000034   0.000000   0.000000
    2  C  1  S    0.000000   0.000000  -0.000099   0.000000   0.000000
    3  C  1  S    0.000000   0.000000  -0.000204   0.000000   0.000000
    4  C  1  X    0.282142   0.000000   0.000000  -0.955815   0.000000
    5  C  1  Y    0.000000   0.282142   0.000000   0.000000  -0.955815
    6  C  1  Z    0.000000   0.000000   0.955835   0.000000   0.000000
    7  C  1  X   -1.497501   0.000000   0.000000   1.325721   0.000000
    8  C  1  Y    0.000000  -1.497501   0.000000   0.000000   1.325721
    9  C  1  Z    0.000000   0.000000  -1.325755   0.000000   0.000000
   10  C  1 XX    0.053170   0.000000   0.083544   0.118180   0.000000
   11  C  1 YY   -0.053170   0.000000   0.083544  -0.118180   0.000000
   12  C  1 ZZ    0.000000   0.000000  -0.167088   0.000000   0.000000
   13  C  1 XY    0.000000  -0.061396   0.000000   0.000000  -0.136462
   14  C  1 XZ   -0.043396   0.000000   0.000000  -0.096454   0.000000
   15  C  1 YZ    0.000000  -0.043396   0.000000   0.000000  -0.096454
   16  H  2  S    0.000000   0.000000  -0.611726   0.000000   0.000000
   17  H  2  S    0.000000   0.000000   1.625337   0.000000   0.000000
   18  H  2  X   -0.020861   0.000000   0.000000  -0.056696   0.000000
   19  H  2  Y    0.000000  -0.020861   0.000000   0.000000  -0.056696
   20  H  2  Z    0.000000   0.000000  -0.150925   0.000000   0.000000
   21  H  3  S   -0.390937   0.677123   0.204128  -0.288468   0.499641
   22  H  3  S   -0.158375   0.274314  -0.541800   0.766172  -1.327049
   23  H  3  X   -0.016762  -0.007130  -0.032627  -0.010550  -0.079933
   24  H  3  Y   -0.007130  -0.008528   0.056511  -0.079933   0.081748
   25  H  3  Z    0.002910  -0.005040   0.033625   0.032619  -0.056499
   26  H  4  S   -0.390937  -0.677123   0.204128  -0.288468  -0.499641
   27  H  4  S   -0.158375  -0.274314  -0.541800   0.766172   1.327049
   28  H  4  X   -0.016762   0.007130  -0.032627  -0.010550   0.079933
   29  H  4  Y    0.007130  -0.008528  -0.056511   0.079933   0.081748
   30  H  4  Z    0.002910   0.005040   0.033625   0.032619   0.056499
   31  H  5  S    0.781874   0.000000   0.204128   0.576935   0.000000
   32  H  5  S    0.316751   0.000000  -0.541800  -1.532344   0.000000
   33  H  5  X   -0.004412   0.000000   0.065254   0.127897   0.000000
   34  H  5  Y    0.000000  -0.020878   0.000000   0.000000  -0.056699
   35  H  5  Z   -0.005820   0.000000   0.033625  -0.065239   0.000000

     ----------------------------------------------------------------
     PROPERTY VALUES FOR THE RHF   SELF-CONSISTENT FIELD WAVEFUNCTION
     ----------------------------------------------------------------

          -----------------
          ENERGY COMPONENTS
          -----------------

         WAVEFUNCTION NORMALIZATION =       1.0000000000

                ONE ELECTRON ENERGY =     -79.7997123424
                TWO ELECTRON ENERGY =      26.1131340799
           NUCLEAR REPULSION ENERGY =      13.4987004810
                                      ------------------
                       TOTAL ENERGY =     -40.1878777816

 ELECTRON-ELECTRON POTENTIAL ENERGY =      26.1131340799
  NUCLEUS-ELECTRON POTENTIAL ENERGY =    -120.0044569247
   NUCLEUS-NUCLEUS POTENTIAL ENERGY =      13.4987004810
                                      ------------------
             TOTAL POTENTIAL ENERGY =     -80.3926223639
               TOTAL KINETIC ENERGY =      40.2047445823
                 VIRIAL RATIO (V/T) =       1.9995804774

          ---------------------------------------
          MULLIKEN AND LOWDIN POPULATION ANALYSES
          ---------------------------------------

     ATOMIC MULLIKEN POPULATION IN EACH MOLECULAR ORBITAL

                      1          2          3          4          5

                  2.000000   2.000000   2.000000   2.000000   2.000000

    1             1.998767   1.162074   1.063592   1.063592   1.063617
    2             0.000308   0.209498   0.002930   0.002930   0.696449
    3             0.000308   0.209476   0.157044   0.465275   0.079978
    4             0.000308   0.209476   0.157044   0.465275   0.079978
    5             0.000308   0.209476   0.619390   0.002929   0.079978

               ----- POPULATIONS IN EACH AO -----
                             MULLIKEN      LOWDIN
              1  C  1  S      1.99603     1.97556
              2  C  1  S      0.68869     0.36120
              3  C  1  S      0.47612     0.30583
              4  C  1  X      0.69637     0.63776
              5  C  1  Y      0.69637     0.63889
              6  C  1  Z      0.69635     0.63719
              7  C  1  X      0.35748     0.44788
              8  C  1  Y      0.35748     0.44834
              9  C  1  Z      0.35752     0.44769
             10  C  1 XX      0.00974     0.15097
             11  C  1 YY      0.00650     0.15097
             12  C  1 ZZ      0.00650     0.15392
             13  C  1 XY      0.00324     0.01440
             14  C  1 XZ      0.00324     0.00715
             15  C  1 YZ      0.00000     0.00719
             16  H  2  S      0.78100     0.65272
             17  H  2  S      0.11090     0.21317
             18  H  2  X      0.00293     0.00858
             19  H  2  Y      0.00293     0.00858
             20  H  2  Z      0.01436     0.02319
             21  H  3  S      0.78100     0.64963
             22  H  3  S      0.11086     0.21303
             23  H  3  X      0.00547     0.01155
             24  H  3  Y      0.01055     0.01793
             25  H  3  Z      0.00420     0.00997
             26  H  4  S      0.78100     0.64963
             27  H  4  S      0.11086     0.21303
             28  H  4  X      0.00547     0.01155
             29  H  4  Y      0.01055     0.01793
             30  H  4  Z      0.00420     0.00997
             31  H  5  S      0.78100     0.65149
             32  H  5  S      0.11086     0.21311
             33  H  5  X      0.01309     0.02133
             34  H  5  Y      0.00293     0.00858
             35  H  5  Z      0.00420     0.01008

          ----- MULLIKEN ATOMIC OVERLAP POPULATIONS -----
          (OFF-DIAGONAL ELEMENTS NEED TO BE MULTIPLIED BY 2)

             1           2           3           4           5

    1    4.7124677
    2    0.4097897   0.5603908
    3    0.4097945  -0.0193552   0.5603271
    4    0.4097945  -0.0193552  -0.0193425   0.5603271
    5    0.4097945  -0.0193552  -0.0193425  -0.0193425   0.5603271

          TOTAL MULLIKEN AND LOWDIN ATOMIC POPULATIONS
       ATOM         MULL.POP.    CHARGE          LOW.POP.     CHARGE
    1 C             6.351641   -0.351641         6.384953   -0.384953
    2 H             0.912115    0.087885         0.906238    0.093762
    3 H             0.912081    0.087919         0.902112    0.097888
    4 H             0.912081    0.087919         0.902112    0.097888
    5 H             0.912081    0.087919         0.904585    0.095415

          MULLIKEN SPHERICAL HARMONIC POPULATIONS
       ATOM           S       P       D      F      G      H      I    TOTAL
    1 C             3.16    3.16    0.03   0.00   0.00   0.00   0.00    6.35
    2 H             0.89    0.02    0.00   0.00   0.00   0.00   0.00    0.91
    3 H             0.89    0.02    0.00   0.00   0.00   0.00   0.00    0.91
    4 H             0.89    0.02    0.00   0.00   0.00   0.00   0.00    0.91
    5 H             0.89    0.02    0.00   0.00   0.00   0.00   0.00    0.91

          -------------------------------
          BOND ORDER AND VALENCE ANALYSIS     BOND ORDER THRESHOLD=0.050
          -------------------------------

                   BOND                       BOND                       BOND
  ATOM PAIR DIST  ORDER      ATOM PAIR DIST  ORDER      ATOM PAIR DIST  ORDER
    1   2  1.085  0.991        1   3  1.085  0.991        1   4  1.085  0.991
    1   5  1.085  0.991

                       TOTAL       BONDED        FREE
      ATOM            VALENCE     VALENCE     VALENCE
    1 C                 3.962       3.962      -0.000
    2 H                 0.971       0.971       0.000
    3 H                 0.971       0.971      -0.000
    4 H                 0.971       0.971      -0.000
    5 H                 0.971       0.971      -0.000

          ---------------------
          ELECTROSTATIC MOMENTS
          ---------------------

 POINT   1           X           Y           Z (BOHR)    CHARGE
                -0.000000    0.000000    1.318912       -0.00 (A.U.)
         DX          DY          DZ         /D/  (DEBYE)
    -0.000000    0.000000    0.000124    0.000124
 ...... END OF PROPERTY EVALUATION ......
 STEP CPU TIME =     0.00 TOTAL CPU TIME =        0.1 (    0.0 MIN)
 TOTAL WALL CLOCK TIME=        0.1 SECONDS, CPU UTILIZATION IS  92.31%
  $VIB   
          IVIB=   0 IATOM=   0 ICOORD=   0 E=      -40.1878777816
  0.000000000E+00 0.000000000E+00-6.549891704E-05 0.000000000E+00 0.000000000E+00
  8.043584123E-06-6.972386048E-07 1.207652689E-06 1.915177781E-05-6.972386048E-07
 -1.207652689E-06 1.915177781E-05 1.394477210E-06 0.000000000E+00 1.915177781E-05
 -1.693156282E-15 1.005332203E-14 1.243985488E-04
 ......END OF GEOMETRY SEARCH......
 STEP CPU TIME =     0.00 TOTAL CPU TIME =        0.1 (    0.0 MIN)
 TOTAL WALL CLOCK TIME=        0.1 SECONDS, CPU UTILIZATION IS  92.31%

          ---------------------------------------
          EDMISTON-RUEDENBERG ENERGY LOCALIZATION
          ---------------------------------------
          C.EDMISTON AND K.RUEDENBERG, REV.MOD.PHYS. 35, 457-465 (1963)

          --------------------
          2 ELECTRON INTEGRALS
          --------------------

 THE -PK- OPTION IS OFF, THE INTEGRALS ARE NOT IN SUPERMATRIX FORM.
 STORING   15000 INTEGRALS/RECORD ON DISK, USING 12 BYTES/INTEGRAL.
 TWO ELECTRON INTEGRAL EVALUATION REQUIRES   90567 WORDS OF MEMORY.
 II,JST,KST,LST =  1  1  1  1 NREC =         1 INTLOC =    1
 II,JST,KST,LST =  2  1  1  1 NREC =         1 INTLOC =    2
 II,JST,KST,LST =  3  1  1  1 NREC =         1 INTLOC =    7
 II,JST,KST,LST =  4  1  1  1 NREC =         1 INTLOC =   22
 II,JST,KST,LST =  5  1  1  1 NREC =         1 INTLOC =   67
 II,JST,KST,LST =  6  1  1  1 NREC =         1 INTLOC =  214
 II,JST,KST,LST =  7  1  1  1 NREC =         1 INTLOC = 1189
 II,JST,KST,LST =  8  1  1  1 NREC =         1 INTLOC = 1867
 II,JST,KST,LST =  9  1  1  1 NREC =         1 INTLOC = 2713
 II,JST,KST,LST = 10  1  1  1 NREC =         1 INTLOC = 5597
 II,JST,KST,LST = 11  1  1  1 NREC =         1 INTLOC =10238
 II,JST,KST,LST = 12  1  1  1 NREC =         2 INTLOC =  573
 II,JST,KST,LST = 13  1  1  1 NREC =         3 INTLOC = 6330
 II,JST,KST,LST = 14  1  1  1 NREC =         3 INTLOC =14995
 II,JST,KST,LST = 15  1  1  1 NREC =         4 INTLOC = 9685
 II,JST,KST,LST = 16  1  1  1 NREC =         7 INTLOC =  234
 II,JST,KST,LST = 17  1  1  1 NREC =         7 INTLOC =12915
 II,JST,KST,LST = 18  1  1  1 NREC =         8 INTLOC =11784
 TOTAL NUMBER OF NONZERO TWO-ELECTRON INTEGRALS =              164063
         11 INTEGRAL RECORDS WERE STORED ON DISK FILE  8.
  ...... END OF TWO-ELECTRON INTEGRALS .....
 STEP CPU TIME =     0.02 TOTAL CPU TIME =        0.1 (    0.0 MIN)
 TOTAL WALL CLOCK TIME=        0.1 SECONDS, CPU UTILIZATION IS  93.33%

     --------------------------------------------
     PARTIAL TWO ELECTRON INTEGRAL TRANSFORMATION
     --------------------------------------------

 NUMBER OF CORE MOLECULAR ORBITALS     =    1
 NUMBER OF OCCUPIED MOLECULAR ORBITALS =    5
 TOTAL NUMBER OF MOLECULAR ORBITALS    =    5
 TOTAL NUMBER OF ATOMIC ORBITALS       =   35
 THRESHOLD FOR KEEPING TRANSFORMED 2E- INTEGRALS = 1.000E-09
 AO INTEGRALS WILL BE READ IN FROM DISK...

 PLAN A: REQUIREMENTS FOR FULLY IN-MEMORY TRANSFORMATION:
 # OF WORDS AVAILABLE =            124997486
 # OF WORDS NEEDED    =               154397

 CHOOSING IN MEMORY PARTIAL TRANSFORMATION...
 TOTAL NUMBER OF TRANSFORMED 2E- INTEGRALS KEPT =           28
 ... END OF INTEGRAL TRANSFORMATION ...
 STEP CPU TIME =     0.00 TOTAL CPU TIME =        0.1 (    0.0 MIN)
 TOTAL WALL CLOCK TIME=        0.1 SECONDS, CPU UTILIZATION IS  93.33%

          ---------------------------------------
          EDMISTON-RUEDENBERG ENERGY LOCALIZATION
          ---------------------------------------
          C.EDMISTON AND K.RUEDENBERG, REV.MOD.PHYS. 35, 457-465 (1963)

 THIS LOCALIZATION REQUIRES     33844 WORDS OF MEMORY.
 THIS LOCALIZATION HAS   5 ORBITALS, OF WHICH   1 ARE FROZEN.

 INITIAL LOCALIZATION SUMS ARE
     DIAGONAL SUM D=        2.1069200855
      COULOMB SUM C=        7.6085242470
     EXCHANGE SUM X=        2.9500578368

 BEGINNING 2X2 JACOBI ROTATIONS...
          5 PAIR ROTATIONS WHEN CONVERGED TO    1.00E-01
          4 PAIR ROTATIONS WHEN CONVERGED TO    1.00E-02
          5 PAIR ROTATIONS WHEN CONVERGED TO    1.00E-03
          5 PAIR ROTATIONS WHEN CONVERGED TO    1.00E-04
          5 PAIR ROTATIONS WHEN CONVERGED TO    1.00E-05
          3 PAIR ROTATIONS WHEN CONVERGED TO    1.00E-06
         27 TOTAL PAIR ROTATIONS REQUIRED TO CONVERGE TO    1.00E-06

   FINAL LOCALIZATION SUMS ARE
     DIAGONAL SUM D=        2.7532626339
      COULOMB SUM C=        7.6085242470
     EXCHANGE SUM X=        2.9500578368
 FOCK OPERATOR FOR THE LOCALIZED ORBITALS IS

             1           2           3           4

    1   -0.6464855
    2   -0.0995988  -0.6464854
    3   -0.0995986  -0.0995986  -0.6464852
    4   -0.0996180  -0.0996179  -0.0996178  -0.6464513

 EDMISTON-RUEDENBERG ENERGY LOCALIZED ORBITALS

                      1          2          3          4          5

    1  C  1  S   -0.995147   0.103464   0.103464   0.103464   0.103448
    2  C  1  S   -0.023371  -0.197141  -0.197141  -0.197141  -0.197106
    3  C  1  S    0.010483  -0.128015  -0.128015  -0.128015  -0.127988
    4  C  1  X    0.000000   0.177216  -0.354431   0.177216  -0.000000
    5  C  1  Y    0.000000   0.306946  -0.000000  -0.306946  -0.000000
    6  C  1  Z   -0.000000   0.125302   0.125302   0.125302  -0.375940
    7  C  1  X    0.000000   0.089366  -0.178732   0.089366  -0.000000
    8  C  1  Y    0.000000   0.154786  -0.000000  -0.154786  -0.000000
    9  C  1  Z    0.000000   0.063201   0.063201   0.063201  -0.189593
   10  C  1 XX   -0.000000   0.003585  -0.017929   0.003585   0.010758
   11  C  1 YY   -0.000000  -0.010758   0.010756  -0.010758   0.010758
   12  C  1 ZZ    0.000000   0.007173   0.007173   0.007173  -0.021515
   13  C  1 XY    0.000000  -0.014343   0.000000   0.014343   0.000000
   14  C  1 XZ    0.000000  -0.005853   0.011705  -0.005853   0.000000
   15  C  1 YZ    0.000000  -0.010137   0.000000   0.010137   0.000000
   16  H  2  S   -0.000087   0.025596   0.025597   0.025596  -0.447905
   17  H  2  S   -0.001543   0.025584   0.025584   0.025584  -0.104469
   18  H  2  X    0.000000   0.003944  -0.007889   0.003944  -0.000000
   19  H  2  Y    0.000000   0.006832  -0.000000  -0.006832  -0.000000
   20  H  2  Z    0.000097   0.004399   0.004399   0.004399   0.026427
   21  H  3  S   -0.000087   0.025599   0.025599  -0.447904   0.025590
   22  H  3  S   -0.001543   0.025572   0.025572  -0.104432   0.025588
   23  H  3  X   -0.000046   0.003185  -0.008646  -0.012460  -0.000759
   24  H  3  Y    0.000079   0.008145   0.001314   0.021581   0.001315
   25  H  3  Z   -0.000032   0.002253   0.002253  -0.008805  -0.008905
   26  H  4  S   -0.000087  -0.447904   0.025599   0.025599   0.025590
   27  H  4  S   -0.001543  -0.104432   0.025572   0.025572   0.025588
   28  H  4  X   -0.000046  -0.012460  -0.008646   0.003185  -0.000759
   29  H  4  Y   -0.000079  -0.021581  -0.001314  -0.008145  -0.001315
   30  H  4  Z   -0.000032  -0.008805   0.002253   0.002253  -0.008905
   31  H  5  S   -0.000087   0.025599  -0.447904   0.025600   0.025590
   32  H  5  S   -0.001543   0.025572  -0.104432   0.025572   0.025588
   33  H  5  X    0.000091   0.005461   0.024919   0.005461   0.001519
   34  H  5  Y    0.000000   0.006831  -0.000000  -0.006831  -0.000000
   35  H  5  Z   -0.000032   0.002253  -0.008805   0.002253  -0.008905
 ... DONE WITH ENERGY LOCALIZATION ...
 STEP CPU TIME =     0.00 TOTAL CPU TIME =        0.1 (    0.0 MIN)
 TOTAL WALL CLOCK TIME=        0.1 SECONDS, CPU UTILIZATION IS  93.33%
              1052979  WORDS OF DYNAMIC MEMORY USED
 EXECUTION OF GAMESS TERMINATED NORMALLY Wed Aug 10 21:55:51 2016
 DDI: 263640 bytes (0.3 MB / 0 MWords) used by master data server.

 ----------------------------------------
 CPU timing information for all processes
 ========================================
 0: 0.137 + 0.16 = 0.153
 ----------------------------------------
 ddikick.x: exited gracefully.
