----- GAMESS execution script 'rungms' -----
This job is running on host adm-106348-mac.local
under operating system Darwin at Wed Aug 10 21:55:36 BST 2016
Available scratch disk space (Kbyte units) at beginning of the job is
Filesystem 1024-blocks      Used Available Capacity  iused    ifree %iused  Mounted on
/dev/disk1   487219328 222136468 264826860    46% 55598115 66206715   46%   /
GAMESS temporary binary files will be written to /var/folders/4f/yfn5hhsj5qs66zvp9j1ymsshjvstmp/T/
GAMESS supplementary output files will be written to /var/folders/4f/yfn5hhsj5qs66zvp9j1ymsshjvstmp/T/
Copying input file pcseg-0.inp to your run's scratch directory...
The generated host list is
localhost

 Distributed Data Interface kickoff program.
 Initiating 1 compute processes on 1 nodes to run the following command:
 /Users/css/Development/fortran/gamess/gamess.00.x pcseg-0 

          ******************************************************
          *         GAMESS VERSION =  5 DEC 2014 (R1)          *
          *             FROM IOWA STATE UNIVERSITY             *
          * M.W.SCHMIDT, K.K.BALDRIDGE, J.A.BOATZ, S.T.ELBERT, *
          *   M.S.GORDON, J.H.JENSEN, S.KOSEKI, N.MATSUNAGA,   *
          *          K.A.NGUYEN, S.J.SU, T.L.WINDUS,           *
          *       TOGETHER WITH M.DUPUIS, J.A.MONTGOMERY       *
          *         J.COMPUT.CHEM.  14, 1347-1363(1993)        *
          **************** 64 BIT APPLE VERSION ****************

  SINCE 1993, STUDENTS AND POSTDOCS WORKING AT IOWA STATE UNIVERSITY
  AND ALSO IN THEIR VARIOUS JOBS AFTER LEAVING ISU HAVE MADE IMPORTANT
  CONTRIBUTIONS TO THE CODE:
     IVANA ADAMOVIC, CHRISTINE AIKENS, YURI ALEXEEV, POOJA ARORA,
     ANDREY ASADCHEV, ROB BELL, PRADIPTA BANDYOPADHYAY, JONATHAN BENTZ,
     BRETT BODE, KURT BRORSEN, CALEB CARLIN, GALINA CHABAN, WEI CHEN,
     CHEOL HO CHOI, PAUL DAY, ALBERT DEFUSCO, NUWAN DESILVA, TIM DUDLEY,
     DMITRI FEDOROV, GRAHAM FLETCHER, MARK FREITAG, KURT GLAESEMANN,
     DAN KEMP, GRANT MERRILL, NORIYUKI MINEZAWA, JONATHAN MULLIN,
     TAKESHI NAGATA, SEAN NEDD, HEATHER NETZLOFF, BOSILJKA NJEGIC, RYAN OLSON,
     MIKE PAK, SPENCER PRUITT, LUKE ROSKOP, JIM SHOEMAKER, LYUDMILA SLIPCHENKO,
     TONY SMITH, SAROM SOK, JIE SONG, TETSUYA TAKETSUGU, SIMON WEBB,
     PENG XU, SOOHAENG YOO, FEDERICO ZAHARIEV

  ADDITIONAL CODE HAS BEEN PROVIDED BY COLLABORATORS IN OTHER GROUPS:
     IOWA STATE UNIVERSITY:
          JOE IVANIC, AARON WEST, LAIMUTIS BYTAUTAS, KLAUS RUEDENBERG
     UNIVERSITY OF TOKYO: KIMIHIKO HIRAO, TAKAHITO NAKAJIMA,
          TAKAO TSUNEDA, MUNEAKI KAMIYA, SUSUMU YANAGISAWA,
          KIYOSHI YAGI, MAHITO CHIBA, SEIKEN TOKURA, NAOAKI KAWAKAMI
     UNIVERSITY OF AARHUS: FRANK JENSEN
     UNIVERSITY OF IOWA: VISVALDAS KAIRYS, HUI LI
     NATIONAL INST. OF STANDARDS AND TECHNOLOGY: WALT STEVENS, DAVID GARMER
     UNIVERSITY OF PISA: BENEDETTA MENNUCCI, JACOPO TOMASI
     UNIVERSITY OF MEMPHIS: HENRY KURTZ, PRAKASHAN KORAMBATH
     UNIVERSITY OF ALBERTA: TOBY ZENG, MARIUSZ KLOBUKOWSKI
     UNIVERSITY OF NEW ENGLAND: MARK SPACKMAN
     MIE UNIVERSITY: HIROAKI UMEDA
     NAT. INST. OF ADVANCED INDUSTRIAL SCIENCE AND TECHNOLOGY: KAZUO KITAURA
     MICHIGAN STATE UNIVERSITY:
          KAROL KOWALSKI, MARTA WLOCH, JEFFREY GOUR, JESSE LUTZ,
          WEI LI, PIOTR PIECUCH
     UNIVERSITY OF SILESIA: MONIKA MUSIAL, STANISLAW KUCHARSKI
     FACULTES UNIVERSITAIRES NOTRE-DAME DE LA PAIX:
          OLIVIER QUINET, BENOIT CHAMPAGNE
     UNIVERSITY OF CALIFORNIA - SANTA BARBARA: BERNARD KIRTMAN
     INSTITUTE FOR MOLECULAR SCIENCE:
          KAZUYA ISHIMURA, MICHIO KATOUDA, AND SHIGERU NAGASE
     UNIVERSITY OF NOTRE DAME: ANNA POMOGAEVA, DAN CHIPMAN
     KYUSHU UNIVERSITY:
          HARUYUKI NAKANO,
          FENG LONG GU, JACEK KORCHOWIEC, MARCIN MAKOWSKI, AND YURIKO AOKI,
          HIROTOSHI MORI AND EISAKU MIYOSHI
     PENNSYLVANIA STATE UNIVERSITY:
          TZVETELIN IORDANOV, CHET SWALINA, JONATHAN SKONE,
          SHARON HAMMES-SCHIFFER
     WASEDA UNIVERSITY:
          MASATO KOBAYASHI, TOMOKO AKAMA, TSUGUKI TOUMA,
          TAKESHI YOSHIKAWA, YASUHIRO IKABATA, HIROMI NAKAI
     NANJING UNIVERSITY: SHUHUA LI
     UNIVERSITY OF NEBRASKA:
          PEIFENG SU, DEJUN SI, NANDUN THELLAMUREGE, YALI WANG, HUI LI
     UNIVERSITY OF ZURICH: ROBERTO PEVERATI, KIM BALDRIDGE
     N. COPERNICUS UNIVERSITY AND JACKSON STATE UNIVERSITY:
          MARIA BARYSZ
     UNIVERSITY OF COPENHAGEN: CASPER STEINMANN
     TOKYO INSTITUTE OF TECHNOLOGY: HIROYA NAKATA
     NAGOYA UNIVERSITY: YOSHIO NISHIMOTO, STEPHAN IRLE

 EXECUTION OF GAMESS BEGUN Wed Aug 10 21:55:36 2016

            ECHO OF THE FIRST FEW INPUT CARDS -
 INPUT CARD> $BASIS                                                                         
 INPUT CARD>   GBASIS=PCseg-0                                                               
 INPUT CARD> $END                                                                           
 INPUT CARD> $CONTRL                                                                        
 INPUT CARD>   SCFTYP=RHF                                                                   
 INPUT CARD>   RUNTYP=OPTIMIZE                                                              
 INPUT CARD>   LOCAL=RUEDNBRG                                                               
 INPUT CARD>   ISPHER=1                                                                     
 INPUT CARD> $END                                                                           
 INPUT CARD> $SYSTEM                                                                        
 INPUT CARD>   MWORDS=125                                                                   
 INPUT CARD> $END                                                                           
 INPUT CARD> $STATPT                                                                        
 INPUT CARD>   OPTTOL=1.0E-4                                                                
 INPUT CARD> $END                                                                           
 INPUT CARD> $GUESS                                                                         
 INPUT CARD>   GUESS=HUCKEL                                                                 
 INPUT CARD> $END                                                                           
 INPUT CARD> $DATA                                                                          
 INPUT CARD>CH4                                                                             
 INPUT CARD>Cnv 3                                                                           
 INPUT CARD>                                                                                
 INPUT CARD> C           6.0   0.0000000000   0.0000000000   0.6979883327                   
 INPUT CARD> H           1.0   0.0000000000   0.0000000000   1.7842268879                   
 INPUT CARD> H           1.0   1.0241365916   0.0000000000   0.3359282598                   
 INPUT CARD> $END                                                                           
  125000000 WORDS OF MEMORY AVAILABLE

     BASIS OPTIONS
     -------------
     GBASIS=PCSEG-0      IGAUSS=       0      POLAR=NONE    
     NDFUNC=       0     NFFUNC=       0     DIFFSP=       F
     NPFUNC=       0      DIFFS=       F     BASNAM=        


     RUN TITLE
     ---------
 CH4                                                                             

 THE POINT GROUP OF THE MOLECULE IS CNV     
 THE ORDER OF THE PRINCIPAL AXIS IS     3

 ATOM      ATOMIC                      COORDINATES (BOHR)
           CHARGE         X                   Y                   Z
 C           6.0     0.0000000000        0.0000000000        1.3190066914
 H           1.0     0.0000000000        0.0000000000        3.3716999181
 H           1.0    -0.9676687661        1.6760514677        0.6348123626
 H           1.0    -0.9676687661       -1.6760514677        0.6348123626
 H           1.0     1.9353375321        0.0000000000        0.6348123626

          INTERNUCLEAR DISTANCES (ANGS.)
          ------------------------------

                1 C          2 H          3 H          4 H          5 H     

   1 C       0.0000000    1.0862386 *  1.0862519 *  1.0862519 *  1.0862519 *
   2 H       1.0862386 *  0.0000000    1.7738164 *  1.7738164 *  1.7738164 *
   3 H       1.0862519 *  1.7738164 *  0.0000000    1.7738566 *  1.7738566 *
   4 H       1.0862519 *  1.7738164 *  1.7738566 *  0.0000000    1.7738566 *
   5 H       1.0862519 *  1.7738164 *  1.7738566 *  1.7738566 *  0.0000000  

  * ... LESS THAN  3.000


     ATOMIC BASIS SET
     ----------------
 THE CONTRACTED PRIMITIVE FUNCTIONS HAVE BEEN UNNORMALIZED
 THE CONTRACTED BASIS FUNCTIONS ARE NOW NORMALIZED TO UNITY

  SHELL TYPE  PRIMITIVE        EXPONENT          CONTRACTION COEFFICIENT(S)

 C         

      1   S       1           471.5250000    0.018365741272
      1   S       2            71.1900000    0.127245821015
      1   S       3            15.8860000    0.440412776421
      1   S       4             4.1646900    0.553280001111

      2   S       5             0.4425810    1.000000000000

      3   S       6             0.1428360    1.000000000000

      4   P       7             4.4121100    0.213746653399
      4   P       8             0.8798600    0.879956252208

      5   P       9             0.1929920    1.000000000000

 H         

      6   S      10             4.3447300    0.167654352461
      6   S      11             0.6604870    0.896889788192

      7   S      12             0.1366870    1.000000000000

 H         

     12   S      13             4.3447300    0.167654352461
     12   S      14             0.6604870    0.896889788192

     13   S      15             0.1366870    1.000000000000

 TOTAL NUMBER OF BASIS SET SHELLS             =   13
 NUMBER OF CARTESIAN GAUSSIAN BASIS FUNCTIONS =   17
 NOTE: THIS RUN WILL RESTRICT THE MO VARIATION SPACE TO SPHERICAL HARMONICS.
 THE NUMBER OF ORBITALS KEPT IN THE VARIATIONAL SPACE WILL BE PRINTED LATER.
 NUMBER OF ELECTRONS                          =   10
 CHARGE OF MOLECULE                           =    0
 SPIN MULTIPLICITY                            =    1
 NUMBER OF OCCUPIED ORBITALS (ALPHA)          =    5
 NUMBER OF OCCUPIED ORBITALS (BETA )          =    5
 TOTAL NUMBER OF ATOMS                        =    5
 THE NUCLEAR REPULSION ENERGY IS       13.4817900223

     $CONTRL OPTIONS
     ---------------
 SCFTYP=RHF          RUNTYP=OPTIMIZE     EXETYP=RUN     
 MPLEVL=       0     CITYP =NONE         CCTYP =NONE         VBTYP =NONE    
 DFTTYP=NONE         TDDFT =NONE    
 MULT  =       1     ICHARG=       0     NZVAR =       0     COORD =UNIQUE  
 PP    =NONE         RELWFN=NONE         LOCAL =RUEDNBRG     NUMGRD=       F
 ISPHER=       1     NOSYM =       0     MAXIT =      30     UNITS =ANGS    
 PLTORB=       F     MOLPLT=       F     AIMPAC=       F     FRIEND=        
 NPRINT=       7     IREST =       0     GEOM  =INPUT   
 NORMF =       0     NORMP =       0     ITOL  =      20     ICUT  =       9
 INTTYP=BEST         GRDTYP=BEST         QMTTOL= 1.0E-06

     $SYSTEM OPTIONS
     ---------------
  REPLICATED MEMORY=   125000000 WORDS (ON EVERY NODE).
 DISTRIBUTED MEMDDI=           0 MILLION WORDS IN AGGREGATE,
 MEMDDI DISTRIBUTED OVER   1 PROCESSORS IS           0 WORDS/PROCESSOR.
 TOTAL MEMORY REQUESTED ON EACH PROCESSOR=   125000000 WORDS.
 TIMLIM=      525600.00 MINUTES, OR     365.0 DAYS.
 PARALL= F  BALTYP=  DLB     KDIAG=    0  COREFL= F
 MXSEQ2=     300 MXSEQ3=     150  mem10=         0

          ----------------
          PROPERTIES INPUT
          ----------------

     MOMENTS            FIELD           POTENTIAL          DENSITY
 IEMOM =       1   IEFLD =       0   IEPOT =       0   IEDEN =       0
 WHERE =COMASS     WHERE =NUCLEI     WHERE =NUCLEI     WHERE =NUCLEI  
 OUTPUT=BOTH       OUTPUT=BOTH       OUTPUT=BOTH       OUTPUT=BOTH    
 IEMINT=       0   IEFINT=       0                     IEDINT=       0
                                                       MORB  =       0
          EXTRAPOLATION IN EFFECT
          DIIS IN EFFECT
 ORBITAL PRINTING OPTION: NPREO=     1    17     2     1

     -------------------------------
     INTEGRAL TRANSFORMATION OPTIONS
     -------------------------------
     NWORD  =            0
     CUTOFF = 1.0E-09     MPTRAN =       0
     DIRTRF =       F     AOINTS =DUP     

          -----------------------------
          LOCALIZATION INPUT PARAMETERS
          -----------------------------
           LOCAL=RUEDNBRG      NOUTA=       1
          PRTLOC=       F      NOUTB=       0
          MAXLOC=     250     CVGLOC=1.00E-06
           FCORE=       T     SYMLOC=       F
          MOIDON=       F     EDCOMP=       F
          DIPDCM=       F      NPROT=       0
          QADDCM=       F     DEPRNT=       F
          POLNUM=       F     ORIENT=       F
          POLDYN=       F      VMTOL=1.50E-01
          NPRDTL=       2
          MOOUTA =      1

          ----------------------
          INTEGRAL INPUT OPTIONS
          ----------------------
 NOPK  =       1 NORDER=       0 SCHWRZ=       F

     ------------------------------------------
     THE POINT GROUP IS CNV, NAXIS= 3, ORDER= 6
     ------------------------------------------

 -- VARIATIONAL SPACE WILL BE RESTRICTED TO PURE SPHERICAL HARMONICS ONLY --
 AFTER EXCLUDING CONTAMINANT COMBINATIONS FROM THE CARTESIAN GAUSSIAN BASIS
 SET, THE NUMBER OF SPHERICAL HARMONICS KEPT IN THE VARIATION SPACE IS   17

     DIMENSIONS OF THE SYMMETRY SUBSPACES ARE
 A1  =    9     A2  =    0     E   =    4

 ..... DONE SETTING UP THE RUN .....
 STEP CPU TIME =     0.00 TOTAL CPU TIME =        0.0 (    0.0 MIN)
 TOTAL WALL CLOCK TIME=        0.0 SECONDS, CPU UTILIZATION IS   0.00%


          -----------------------------
          STATIONARY POINT LOCATION RUN
          -----------------------------

 OBTAINING INITIAL HESSIAN, HESS=GUESS   
 CARTESIAN COORDINATE OPTIMIZATION USING BADGER'S RULE FORCE CONSTANT GUESS

          PARAMETERS CONTROLLING GEOMETRY SEARCH ARE
          METHOD =QA                  UPHESS =BFGS    
          NNEG   =         0          NFRZ   =         0
          NSTEP  =        50          IFOLOW =         1
          HESS   =GUESS               RESTAR =         F
          IHREP  =         0          HSSEND =         F
          NPRT   =         0          NPUN   =         0
          OPTTOL = 1.000E-04          RMIN   = 1.500E-03
          RMAX   = 1.000E-01          RLIM   = 7.000E-02
          DXMAX  = 3.000E-01          PURIFY =         F
          MOVIE  =         F          TRUPD  =         T
          TRMAX  = 5.000E-01          TRMIN  = 5.000E-02
          ITBMAT =         5          STPT   =         F
          STSTEP = 1.000E-02          PROJCT=          T

 BEGINNING GEOMETRY SEARCH POINT NSERCH=   0 ...

 COORDINATES OF SYMMETRY UNIQUE ATOMS (ANGS)
   ATOM   CHARGE       X              Y              Z
 ------------------------------------------------------------
 C           6.0   0.0000000000   0.0000000000   0.6979883327
 H           1.0   0.0000000000   0.0000000000   1.7842268879
 H           1.0   1.0241365916   0.0000000000   0.3359282598
 COORDINATES OF ALL ATOMS ARE (ANGS)
   ATOM   CHARGE       X              Y              Z
 ------------------------------------------------------------
 C           6.0   0.0000000000   0.0000000000   0.6979883327
 H           1.0   0.0000000000   0.0000000000   1.7842268879
 H           1.0  -0.5120682958   0.8869283053   0.3359282598
 H           1.0  -0.5120682958  -0.8869283053   0.3359282598
 H           1.0   1.0241365916   0.0000000000   0.3359282598

          ********************
          1 ELECTRON INTEGRALS
          ********************
 ...... END OF ONE-ELECTRON INTEGRALS ......
 STEP CPU TIME =     0.00 TOTAL CPU TIME =        0.0 (    0.0 MIN)
 TOTAL WALL CLOCK TIME=        0.0 SECONDS, CPU UTILIZATION IS   0.00%

          -------------
          GUESS OPTIONS
          -------------
          GUESS =HUCKEL            NORB  =       0          NORDER=       0
          MIX   =       F          PRTMO =       F          PUNMO =       F
          TOLZ  = 1.0E-08          TOLE  = 1.0E-05
          SYMDEN=       F          PURIFY=       F

 INITIAL GUESS ORBITALS GENERATED BY HUCKEL   ROUTINE.
 HUCKEL GUESS REQUIRES      5845 WORDS.

 SYMMETRIES FOR INITIAL GUESS ORBITALS FOLLOW.   BOTH SET(S).
     5 ORBITALS ARE OCCUPIED (    1 CORE ORBITALS).
     2=?A1      3=?E       4=?E       5=?A1      6=?A1      7=?E       8=?E  
     9=?A1     10=A1      11=A1      12=A1      13=A1      14=E       15=E   
 ...... END OF INITIAL ORBITAL SELECTION ......
 STEP CPU TIME =     0.00 TOTAL CPU TIME =        0.0 (    0.0 MIN)
 TOTAL WALL CLOCK TIME=        0.0 SECONDS, CPU UTILIZATION IS   0.00%

                    ----------------------
                    AO INTEGRAL TECHNOLOGY
                    ----------------------
     S,P,L SHELL ROTATED AXIS INTEGRALS, REPROGRAMMED BY
        KAZUYA ISHIMURA (IMS) AND JOSE SIERRA (SYNSTAR).
     S,P,D,L SHELL ROTATED AXIS INTEGRALS PROGRAMMED BY
        KAZUYA ISHIMURA (INSTITUTE FOR MOLECULAR SCIENCE).
     S,P,D,F,G SHELL TO TOTAL QUARTET ANGULAR MOMENTUM SUM 5,
        ERIC PROGRAM BY GRAHAM FLETCHER (ELORET AND NASA ADVANCED
        SUPERCOMPUTING DIVISION, AMES RESEARCH CENTER).
     S,P,D,F,G,L SHELL GENERAL RYS QUADRATURE PROGRAMMED BY
        MICHEL DUPUIS (PACIFIC NORTHWEST NATIONAL LABORATORY).

          --------------------
          2 ELECTRON INTEGRALS
          --------------------

 THE -PK- OPTION IS OFF, THE INTEGRALS ARE NOT IN SUPERMATRIX FORM.
 STORING   15000 INTEGRALS/RECORD ON DISK, USING 12 BYTES/INTEGRAL.
 TWO ELECTRON INTEGRAL EVALUATION REQUIRES   89447 WORDS OF MEMORY.
 II,JST,KST,LST =  1  1  1  1 NREC =         1 INTLOC =    1
 II,JST,KST,LST =  2  1  1  1 NREC =         1 INTLOC =    2
 II,JST,KST,LST =  3  1  1  1 NREC =         1 INTLOC =    7
 II,JST,KST,LST =  4  1  1  1 NREC =         1 INTLOC =   22
 II,JST,KST,LST =  5  1  1  1 NREC =         1 INTLOC =   67
 II,JST,KST,LST =  6  1  1  1 NREC =         1 INTLOC =  214
 II,JST,KST,LST =  7  1  1  1 NREC =         1 INTLOC =  407
 II,JST,KST,LST =  8  1  1  1 NREC =         1 INTLOC =  678
 II,JST,KST,LST =  9  1  1  1 NREC =         1 INTLOC =  678
 II,JST,KST,LST = 10  1  1  1 NREC =         1 INTLOC =  678
 II,JST,KST,LST = 11  1  1  1 NREC =         1 INTLOC =  678
 II,JST,KST,LST = 12  1  1  1 NREC =         1 INTLOC =  678
 II,JST,KST,LST = 13  1  1  1 NREC =         1 INTLOC = 1428
 TOTAL NUMBER OF NONZERO TWO-ELECTRON INTEGRALS =                2723
          1 INTEGRAL RECORDS WERE STORED ON DISK FILE  8.
  ...... END OF TWO-ELECTRON INTEGRALS .....
 STEP CPU TIME =     0.03 TOTAL CPU TIME =        0.0 (    0.0 MIN)
 TOTAL WALL CLOCK TIME=        0.0 SECONDS, CPU UTILIZATION IS  60.00%

          --------------------------
                 RHF SCF CALCULATION
          --------------------------

     NUCLEAR ENERGY =        13.4817900223
     MAXIT =   30     NPUNCH=    2
     EXTRAP=T  DAMP=F  SHIFT=F  RSTRCT=F  DIIS=T  DEM=F  SOSCF=F
     DENSITY MATRIX CONV=  1.00E-05
     MEMORY REQUIRED FOR RHF ITERS=     32926 WORDS.
 RHFCL F

 ITER EX DEM     TOTAL ENERGY        E CHANGE  DENSITY CHANGE    DIIS ERROR
          * * *   INITIATING DIIS PROCEDURE   * * *
   1  0  0      -40.0301097456   -40.0301097456   0.200404502   0.461944773
   2  1  0      -40.0793277365    -0.0492179909   0.042465110   0.042642989
   3  2  0      -40.0817067392    -0.0023790027   0.017073043   0.020468228
   4  3  0      -40.0820341914    -0.0003274521   0.005361479   0.003988165
   5  4  0      -40.0820518071    -0.0000176157   0.000367462   0.000110922
   6  5  0      -40.0820518454    -0.0000000384   0.000016878   0.000010818
   7  6  0      -40.0820518457    -0.0000000002   0.000002056   0.000001336
   8  7  0      -40.0820518457    -0.0000000000   0.000000146   0.000000039

          -----------------
          DENSITY CONVERGED
          -----------------
     TIME TO FORM FOCK OPERATORS=       0.0 SECONDS (       0.0 SEC/ITER)
     TIME TO SOLVE SCF EQUATIONS=       0.0 SECONDS (       0.0 SEC/ITER)

 FINAL RHF ENERGY IS      -40.0820518457 AFTER   8 ITERATIONS
 ...... END OF RHF CALCULATION ......
 STEP CPU TIME =     0.00 TOTAL CPU TIME =        0.0 (    0.0 MIN)
 TOTAL WALL CLOCK TIME=        0.1 SECONDS, CPU UTILIZATION IS  50.00%

     ----------------------------------------------------------------
     PROPERTY VALUES FOR THE RHF   SELF-CONSISTENT FIELD WAVEFUNCTION
     ----------------------------------------------------------------

          -----------------
          ENERGY COMPONENTS
          -----------------

         WAVEFUNCTION NORMALIZATION =       1.0000000000

                ONE ELECTRON ENERGY =     -79.5274369200
                TWO ELECTRON ENERGY =      25.9635950521
           NUCLEAR REPULSION ENERGY =      13.4817900223
                                      ------------------
                       TOTAL ENERGY =     -40.0820518457

 ELECTRON-ELECTRON POTENTIAL ENERGY =      25.9635950521
  NUCLEUS-ELECTRON POTENTIAL ENERGY =    -119.4868384659
   NUCLEUS-NUCLEUS POTENTIAL ENERGY =      13.4817900223
                                      ------------------
             TOTAL POTENTIAL ENERGY =     -80.0414533915
               TOTAL KINETIC ENERGY =      39.9594015459
                 VIRIAL RATIO (V/T) =       2.0030693728

          ---------------------------------------
          MULLIKEN AND LOWDIN POPULATION ANALYSES
          ---------------------------------------

     ATOMIC MULLIKEN POPULATION IN EACH MOLECULAR ORBITAL

                      1          2          3          4          5

                  2.000000   2.000000   2.000000   2.000000   2.000000

    1             1.993866   1.461594   1.137253   1.137253   1.137252
    2             0.001534   0.134608   0.000000   0.000000   0.647053
    3             0.001534   0.134599   0.143791   0.431373   0.071898
    4             0.001534   0.134599   0.143791   0.431373   0.071898
    5             0.001534   0.134599   0.575164   0.000000   0.071898

               ----- POPULATIONS IN EACH AO -----
                             MULLIKEN      LOWDIN
              1  C  1  S      1.98427     1.96085
              2  C  1  S      0.77949     0.63713
              3  C  1  S      0.69170     0.43120
              4  C  1  X      0.48682     0.46953
              5  C  1  Y      0.48682     0.46953
              6  C  1  Z      0.48682     0.46953
              7  C  1  X      0.65043     0.66978
              8  C  1  Y      0.65043     0.66978
              9  C  1  Z      0.65043     0.66978
             10  H  2  S      0.59392     0.56050
             11  H  2  S      0.18927     0.32772
             12  H  3  S      0.59392     0.56049
             13  H  3  S      0.18928     0.32772
             14  H  4  S      0.59392     0.56049
             15  H  4  S      0.18928     0.32772
             16  H  5  S      0.59392     0.56049
             17  H  5  S      0.18928     0.32772

          ----- MULLIKEN ATOMIC OVERLAP POPULATIONS -----
          (OFF-DIAGONAL ELEMENTS NEED TO BE MULTIPLIED BY 2)

             1           2           3           4           5

    1    5.3719582
    2    0.3738154   0.4783180
    3    0.3738150  -0.0229794   0.4783108
    4    0.3738150  -0.0229794  -0.0229755   0.4783108
    5    0.3738150  -0.0229794  -0.0229755  -0.0229755   0.4783108

          TOTAL MULLIKEN AND LOWDIN ATOMIC POPULATIONS
       ATOM         MULL.POP.    CHARGE          LOW.POP.     CHARGE
    1 C             6.867219   -0.867219         6.447123   -0.447123
    2 H             0.783195    0.216805         0.888221    0.111779
    3 H             0.783195    0.216805         0.888218    0.111782
    4 H             0.783195    0.216805         0.888218    0.111782
    5 H             0.783195    0.216805         0.888218    0.111782

          MULLIKEN SPHERICAL HARMONIC POPULATIONS
       ATOM           S       P       D      F      G      H      I    TOTAL
    1 C             3.46    3.41    0.00   0.00   0.00   0.00   0.00    6.87
    2 H             0.78    0.00    0.00   0.00   0.00   0.00   0.00    0.78
    3 H             0.78    0.00    0.00   0.00   0.00   0.00   0.00    0.78
    4 H             0.78    0.00    0.00   0.00   0.00   0.00   0.00    0.78
    5 H             0.78    0.00    0.00   0.00   0.00   0.00   0.00    0.78

          -------------------------------
          BOND ORDER AND VALENCE ANALYSIS     BOND ORDER THRESHOLD=0.050
          -------------------------------

                   BOND                       BOND                       BOND
  ATOM PAIR DIST  ORDER      ATOM PAIR DIST  ORDER      ATOM PAIR DIST  ORDER
    1   2  1.086  0.935        1   3  1.086  0.935        1   4  1.086  0.935
    1   5  1.086  0.935

                       TOTAL       BONDED        FREE
      ATOM            VALENCE     VALENCE     VALENCE
    1 C                 3.738       3.738      -0.000
    2 H                 0.909       0.909       0.000
    3 H                 0.909       0.909      -0.000
    4 H                 0.909       0.909      -0.000
    5 H                 0.909       0.909      -0.000

          ---------------------
          ELECTROSTATIC MOMENTS
          ---------------------

 POINT   1           X           Y           Z (BOHR)    CHARGE
                -0.000000    0.000000    1.319014       -0.00 (A.U.)
         DX          DY          DZ         /D/  (DEBYE)
    -0.000000    0.000000    0.000047    0.000047
 ...... END OF PROPERTY EVALUATION ......
 STEP CPU TIME =     0.00 TOTAL CPU TIME =        0.0 (    0.0 MIN)
 TOTAL WALL CLOCK TIME=        0.1 SECONDS, CPU UTILIZATION IS  50.00%

 BEGINNING ONE ELECTRON GRADIENT...
 ..... END OF 1-ELECTRON GRADIENT ......
 STEP CPU TIME =     0.00 TOTAL CPU TIME =        0.0 (    0.0 MIN)
 TOTAL WALL CLOCK TIME=        0.1 SECONDS, CPU UTILIZATION IS  50.00%

          ----------------------
          GRADIENT OF THE ENERGY
          ----------------------
 THE COARSE/FINE SCHWARZ SCREENINGS SKIPPED            0/           0 BLOCKS.
 THE NUMBER OF GRADIENT INTEGRAL BLOCKS COMPUTED WAS      1276
 ...... END OF 2-ELECTRON GRADIENT ......
 STEP CPU TIME =     0.00 TOTAL CPU TIME =        0.0 (    0.0 MIN)
 TOTAL WALL CLOCK TIME=        0.1 SECONDS, CPU UTILIZATION IS  42.86%

          NSERCH=  0     ENERGY=     -40.0820518

                                 -----------------------
                                 GRADIENT (HARTREE/BOHR)
                                 -----------------------
        ATOM     ZNUC       DE/DX         DE/DY         DE/DZ
 --------------------------------------------------------------
    1  C            6.0     0.0000000     0.0000000     0.0000007
    2  H            1.0     0.0000000     0.0000000    -0.0000692
    3  H            1.0     0.0000266    -0.0000461     0.0000228
    4  H            1.0     0.0000266     0.0000461     0.0000228
    5  H            1.0    -0.0000532     0.0000000     0.0000228

          MAXIMUM GRADIENT = 0.0000692    RMS GRADIENT = 0.0000315

 NSERCH:   0  E=      -40.0820518457  GRAD. MAX=  0.0000692  R.M.S.=  0.0000315


      ***** EQUILIBRIUM GEOMETRY LOCATED *****
 COORDINATES OF SYMMETRY UNIQUE ATOMS (ANGS)
   ATOM   CHARGE       X              Y              Z
 ------------------------------------------------------------
 C           6.0   0.0000000000   0.0000000000   0.6979883327
 H           1.0   0.0000000000   0.0000000000   1.7842268879
 H           1.0   1.0241365916   0.0000000000   0.3359282598
 COORDINATES OF ALL ATOMS ARE (ANGS)
   ATOM   CHARGE       X              Y              Z
 ------------------------------------------------------------
 C           6.0   0.0000000000   0.0000000000   0.6979883327
 H           1.0   0.0000000000   0.0000000000   1.7842268879
 H           1.0  -0.5120682958   0.8869283053   0.3359282598
 H           1.0  -0.5120682958  -0.8869283053   0.3359282598
 H           1.0   1.0241365916   0.0000000000   0.3359282598

          INTERNUCLEAR DISTANCES (ANGS.)
          ------------------------------

                1 C          2 H          3 H          4 H          5 H     

   1 C       0.0000000    1.0862386 *  1.0862519 *  1.0862519 *  1.0862519 *
   2 H       1.0862386 *  0.0000000    1.7738164 *  1.7738164 *  1.7738164 *
   3 H       1.0862519 *  1.7738164 *  0.0000000    1.7738566 *  1.7738566 *
   4 H       1.0862519 *  1.7738164 *  1.7738566 *  0.0000000    1.7738566 *
   5 H       1.0862519 *  1.7738164 *  1.7738566 *  1.7738566 *  0.0000000  

  * ... LESS THAN  3.000


          NUCLEAR ENERGY    =       13.4817900223
          ELECTRONIC ENERGY =      -53.5638418680
          TOTAL ENERGY      =      -40.0820518457

 THE INITIAL GEOMETRY IS ALREADY CONVERGED,
 SO ORBITALS/PROPERTY OUTPUT IS ALREADY PRINTED ABOVE
  $VIB   
          IVIB=   0 IATOM=   0 ICOORD=   0 E=      -40.0820518457
  0.000000000E+00 0.000000000E+00 7.338102672E-07 0.000000000E+00 0.000000000E+00
 -6.920251585E-05 2.660315688E-05-4.607801936E-05 2.282290182E-05 2.660315688E-05
  4.607801936E-05 2.282290182E-05-5.320631377E-05 0.000000000E+00 2.282290182E-05
 -3.950697991E-15 9.453731388E-15 4.704882143E-05
 ......END OF GEOMETRY SEARCH......
 STEP CPU TIME =     0.00 TOTAL CPU TIME =        0.0 (    0.0 MIN)
 TOTAL WALL CLOCK TIME=        0.1 SECONDS, CPU UTILIZATION IS  42.86%

          ---------------------------------------
          EDMISTON-RUEDENBERG ENERGY LOCALIZATION
          ---------------------------------------
          C.EDMISTON AND K.RUEDENBERG, REV.MOD.PHYS. 35, 457-465 (1963)

          --------------------
          2 ELECTRON INTEGRALS
          --------------------

 THE -PK- OPTION IS OFF, THE INTEGRALS ARE NOT IN SUPERMATRIX FORM.
 STORING   15000 INTEGRALS/RECORD ON DISK, USING 12 BYTES/INTEGRAL.
 TWO ELECTRON INTEGRAL EVALUATION REQUIRES   89447 WORDS OF MEMORY.
 II,JST,KST,LST =  1  1  1  1 NREC =         1 INTLOC =    1
 II,JST,KST,LST =  2  1  1  1 NREC =         1 INTLOC =    2
 II,JST,KST,LST =  3  1  1  1 NREC =         1 INTLOC =    7
 II,JST,KST,LST =  4  1  1  1 NREC =         1 INTLOC =   22
 II,JST,KST,LST =  5  1  1  1 NREC =         1 INTLOC =   67
 II,JST,KST,LST =  6  1  1  1 NREC =         1 INTLOC =  214
 II,JST,KST,LST =  7  1  1  1 NREC =         1 INTLOC =  407
 II,JST,KST,LST =  8  1  1  1 NREC =         1 INTLOC =  678
 II,JST,KST,LST =  9  1  1  1 NREC =         1 INTLOC = 1548
 II,JST,KST,LST = 10  1  1  1 NREC =         1 INTLOC = 2653
 II,JST,KST,LST = 11  1  1  1 NREC =         1 INTLOC = 4014
 II,JST,KST,LST = 12  1  1  1 NREC =         1 INTLOC = 5691
 II,JST,KST,LST = 13  1  1  1 NREC =         1 INTLOC = 7447
 TOTAL NUMBER OF NONZERO TWO-ELECTRON INTEGRALS =                9549
          1 INTEGRAL RECORDS WERE STORED ON DISK FILE  8.
  ...... END OF TWO-ELECTRON INTEGRALS .....
 STEP CPU TIME =     0.00 TOTAL CPU TIME =        0.0 (    0.0 MIN)
 TOTAL WALL CLOCK TIME=        0.1 SECONDS, CPU UTILIZATION IS  42.86%

     --------------------------------------------
     PARTIAL TWO ELECTRON INTEGRAL TRANSFORMATION
     --------------------------------------------

 NUMBER OF CORE MOLECULAR ORBITALS     =    1
 NUMBER OF OCCUPIED MOLECULAR ORBITALS =    5
 TOTAL NUMBER OF MOLECULAR ORBITALS    =    5
 TOTAL NUMBER OF ATOMIC ORBITALS       =   17
 THRESHOLD FOR KEEPING TRANSFORMED 2E- INTEGRALS = 1.000E-09
 AO INTEGRALS WILL BE READ IN FROM DISK...

 PLAN A: REQUIREMENTS FOR FULLY IN-MEMORY TRANSFORMATION:
 # OF WORDS AVAILABLE =            124999376
 # OF WORDS NEEDED    =                71885

 CHOOSING IN MEMORY PARTIAL TRANSFORMATION...
 TOTAL NUMBER OF TRANSFORMED 2E- INTEGRALS KEPT =           28
 ... END OF INTEGRAL TRANSFORMATION ...
 STEP CPU TIME =     0.00 TOTAL CPU TIME =        0.0 (    0.0 MIN)
 TOTAL WALL CLOCK TIME=        0.1 SECONDS, CPU UTILIZATION IS  42.86%

          ---------------------------------------
          EDMISTON-RUEDENBERG ENERGY LOCALIZATION
          ---------------------------------------
          C.EDMISTON AND K.RUEDENBERG, REV.MOD.PHYS. 35, 457-465 (1963)

 THIS LOCALIZATION REQUIRES     31018 WORDS OF MEMORY.
 THIS LOCALIZATION HAS   5 ORBITALS, OF WHICH   1 ARE FROZEN.

 INITIAL LOCALIZATION SUMS ARE
     DIAGONAL SUM D=        2.0790812040
      COULOMB SUM C=        7.5377626561
     EXCHANGE SUM X=        2.9039044474

 BEGINNING 2X2 JACOBI ROTATIONS...
          5 PAIR ROTATIONS WHEN CONVERGED TO    1.00E-01
          4 PAIR ROTATIONS WHEN CONVERGED TO    1.00E-02
          5 PAIR ROTATIONS WHEN CONVERGED TO    1.00E-03
          5 PAIR ROTATIONS WHEN CONVERGED TO    1.00E-04
          5 PAIR ROTATIONS WHEN CONVERGED TO    1.00E-05
          5 PAIR ROTATIONS WHEN CONVERGED TO    1.00E-06
         29 TOTAL PAIR ROTATIONS REQUIRED TO CONVERGE TO    1.00E-06

   FINAL LOCALIZATION SUMS ARE
     DIAGONAL SUM D=        2.6907545187
      COULOMB SUM C=        7.5377626561
     EXCHANGE SUM X=        2.9039044474
 FOCK OPERATOR FOR THE LOCALIZED ORBITALS IS

             1           2           3           4

    1   -0.6479287
    2    0.0990768  -0.6479286
    3   -0.0990769   0.0990768  -0.6479287
    4   -0.0990815   0.0990814  -0.0990815  -0.6479322

 EDMISTON-RUEDENBERG ENERGY LOCALIZED ORBITALS

                      1          2          3          4          5

    1  C  1  S   -0.986995  -0.126759   0.126759  -0.126759  -0.126758
    2  C  1  S   -0.048472   0.220414  -0.220413   0.220414   0.220410
    3  C  1  S    0.042081   0.188787  -0.188787   0.188787   0.188786
    4  C  1  X    0.000000  -0.143763  -0.287525  -0.143763   0.000000
    5  C  1  Y    0.000000   0.249004   0.000000  -0.249004   0.000000
    6  C  1  Z   -0.000000  -0.101655   0.101655  -0.101655   0.304970
    7  C  1  X    0.000000  -0.148007  -0.296015  -0.148007   0.000000
    8  C  1  Y    0.000000   0.256356   0.000000  -0.256356   0.000000
    9  C  1  Z    0.000000  -0.104656   0.104656  -0.104655   0.313971
   10  H  2  S    0.001135  -0.025859   0.025859  -0.025859   0.360518
   11  H  2  S   -0.008288  -0.046375   0.046375  -0.046375   0.158669
   12  H  3  S    0.001135   0.360515   0.025858  -0.025858  -0.025858
   13  H  3  S   -0.008288   0.158670   0.046371  -0.046371  -0.046376
   14  H  4  S    0.001135  -0.025858   0.025858   0.360515  -0.025858
   15  H  4  S   -0.008288  -0.046371   0.046371   0.158670  -0.046376
   16  H  5  S    0.001135  -0.025858  -0.360515  -0.025858  -0.025857
   17  H  5  S   -0.008288  -0.046371  -0.158670  -0.046371  -0.046376
 ... DONE WITH ENERGY LOCALIZATION ...
 STEP CPU TIME =     0.00 TOTAL CPU TIME =        0.0 (    0.0 MIN)
 TOTAL WALL CLOCK TIME=        0.1 SECONDS, CPU UTILIZATION IS  42.86%
               580000  WORDS OF DYNAMIC MEMORY USED
 EXECUTION OF GAMESS TERMINATED NORMALLY Wed Aug 10 21:55:36 2016
 DDI: 263640 bytes (0.3 MB / 0 MWords) used by master data server.

 ----------------------------------------
 CPU timing information for all processes
 ========================================
 0: 0.29 + 0.15 = 0.45
 ----------------------------------------
 ddikick.x: exited gracefully.
