----- GAMESS execution script 'rungms' -----
This job is running on host adm-106348-mac.local
under operating system Darwin at Mon Jul 25 11:13:03 CEST 2016
Available scratch disk space (Kbyte units) at beginning of the job is
Filesystem 1024-blocks      Used Available Capacity  iused    ifree %iused  Mounted on
/dev/disk1   487219328 173761096 313202232    36% 43504272 78300558   36%   /
GAMESS temporary binary files will be written to /var/folders/4f/yfn5hhsj5qs66zvp9j1ymsshjvstmp/T/
GAMESS supplementary output files will be written to /var/folders/4f/yfn5hhsj5qs66zvp9j1ymsshjvstmp/T/
Copying input file STO-3G.inp to your run's scratch directory...
The generated host list is
localhost

 Distributed Data Interface kickoff program.
 Initiating 1 compute processes on 1 nodes to run the following command:
 /Users/css/Development/fortran/gamess/gamess.00.x STO-3G 

          ******************************************************
          *         GAMESS VERSION =  5 DEC 2014 (R1)          *
          *             FROM IOWA STATE UNIVERSITY             *
          * M.W.SCHMIDT, K.K.BALDRIDGE, J.A.BOATZ, S.T.ELBERT, *
          *   M.S.GORDON, J.H.JENSEN, S.KOSEKI, N.MATSUNAGA,   *
          *          K.A.NGUYEN, S.J.SU, T.L.WINDUS,           *
          *       TOGETHER WITH M.DUPUIS, J.A.MONTGOMERY       *
          *         J.COMPUT.CHEM.  14, 1347-1363(1993)        *
          **************** 64 BIT APPLE VERSION ****************

  SINCE 1993, STUDENTS AND POSTDOCS WORKING AT IOWA STATE UNIVERSITY
  AND ALSO IN THEIR VARIOUS JOBS AFTER LEAVING ISU HAVE MADE IMPORTANT
  CONTRIBUTIONS TO THE CODE:
     IVANA ADAMOVIC, CHRISTINE AIKENS, YURI ALEXEEV, POOJA ARORA,
     ANDREY ASADCHEV, ROB BELL, PRADIPTA BANDYOPADHYAY, JONATHAN BENTZ,
     BRETT BODE, KURT BRORSEN, CALEB CARLIN, GALINA CHABAN, WEI CHEN,
     CHEOL HO CHOI, PAUL DAY, ALBERT DEFUSCO, NUWAN DESILVA, TIM DUDLEY,
     DMITRI FEDOROV, GRAHAM FLETCHER, MARK FREITAG, KURT GLAESEMANN,
     DAN KEMP, GRANT MERRILL, NORIYUKI MINEZAWA, JONATHAN MULLIN,
     TAKESHI NAGATA, SEAN NEDD, HEATHER NETZLOFF, BOSILJKA NJEGIC, RYAN OLSON,
     MIKE PAK, SPENCER PRUITT, LUKE ROSKOP, JIM SHOEMAKER, LYUDMILA SLIPCHENKO,
     TONY SMITH, SAROM SOK, JIE SONG, TETSUYA TAKETSUGU, SIMON WEBB,
     PENG XU, SOOHAENG YOO, FEDERICO ZAHARIEV

  ADDITIONAL CODE HAS BEEN PROVIDED BY COLLABORATORS IN OTHER GROUPS:
     IOWA STATE UNIVERSITY:
          JOE IVANIC, AARON WEST, LAIMUTIS BYTAUTAS, KLAUS RUEDENBERG
     UNIVERSITY OF TOKYO: KIMIHIKO HIRAO, TAKAHITO NAKAJIMA,
          TAKAO TSUNEDA, MUNEAKI KAMIYA, SUSUMU YANAGISAWA,
          KIYOSHI YAGI, MAHITO CHIBA, SEIKEN TOKURA, NAOAKI KAWAKAMI
     UNIVERSITY OF AARHUS: FRANK JENSEN
     UNIVERSITY OF IOWA: VISVALDAS KAIRYS, HUI LI
     NATIONAL INST. OF STANDARDS AND TECHNOLOGY: WALT STEVENS, DAVID GARMER
     UNIVERSITY OF PISA: BENEDETTA MENNUCCI, JACOPO TOMASI
     UNIVERSITY OF MEMPHIS: HENRY KURTZ, PRAKASHAN KORAMBATH
     UNIVERSITY OF ALBERTA: TOBY ZENG, MARIUSZ KLOBUKOWSKI
     UNIVERSITY OF NEW ENGLAND: MARK SPACKMAN
     MIE UNIVERSITY: HIROAKI UMEDA
     NAT. INST. OF ADVANCED INDUSTRIAL SCIENCE AND TECHNOLOGY: KAZUO KITAURA
     MICHIGAN STATE UNIVERSITY:
          KAROL KOWALSKI, MARTA WLOCH, JEFFREY GOUR, JESSE LUTZ,
          WEI LI, PIOTR PIECUCH
     UNIVERSITY OF SILESIA: MONIKA MUSIAL, STANISLAW KUCHARSKI
     FACULTES UNIVERSITAIRES NOTRE-DAME DE LA PAIX:
          OLIVIER QUINET, BENOIT CHAMPAGNE
     UNIVERSITY OF CALIFORNIA - SANTA BARBARA: BERNARD KIRTMAN
     INSTITUTE FOR MOLECULAR SCIENCE:
          KAZUYA ISHIMURA, MICHIO KATOUDA, AND SHIGERU NAGASE
     UNIVERSITY OF NOTRE DAME: ANNA POMOGAEVA, DAN CHIPMAN
     KYUSHU UNIVERSITY:
          HARUYUKI NAKANO,
          FENG LONG GU, JACEK KORCHOWIEC, MARCIN MAKOWSKI, AND YURIKO AOKI,
          HIROTOSHI MORI AND EISAKU MIYOSHI
     PENNSYLVANIA STATE UNIVERSITY:
          TZVETELIN IORDANOV, CHET SWALINA, JONATHAN SKONE,
          SHARON HAMMES-SCHIFFER
     WASEDA UNIVERSITY:
          MASATO KOBAYASHI, TOMOKO AKAMA, TSUGUKI TOUMA,
          TAKESHI YOSHIKAWA, YASUHIRO IKABATA, HIROMI NAKAI
     NANJING UNIVERSITY: SHUHUA LI
     UNIVERSITY OF NEBRASKA:
          PEIFENG SU, DEJUN SI, NANDUN THELLAMUREGE, YALI WANG, HUI LI
     UNIVERSITY OF ZURICH: ROBERTO PEVERATI, KIM BALDRIDGE
     N. COPERNICUS UNIVERSITY AND JACKSON STATE UNIVERSITY:
          MARIA BARYSZ
     UNIVERSITY OF COPENHAGEN: CASPER STEINMANN
     TOKYO INSTITUTE OF TECHNOLOGY: HIROYA NAKATA
     NAGOYA UNIVERSITY: YOSHIO NISHIMOTO, STEPHAN IRLE

 EXECUTION OF GAMESS BEGUN Mon Jul 25 11:13:03 2016

            ECHO OF THE FIRST FEW INPUT CARDS -
 INPUT CARD> $BASIS                                                                         
 INPUT CARD>   GBASIS=STO NGAUSS=3                                                          
 INPUT CARD> $END                                                                           
 INPUT CARD> $CONTRL                                                                        
 INPUT CARD>   SCFTYP=RHF                                                                   
 INPUT CARD>   RUNTYP=OPTIMIZE                                                              
 INPUT CARD>   LOCAL=RUEDNBRG                                                               
 INPUT CARD> $END                                                                           
 INPUT CARD> $SYSTEM                                                                        
 INPUT CARD>   MWORDS=125                                                                   
 INPUT CARD> $END                                                                           
 INPUT CARD> $STATPT                                                                        
 INPUT CARD>   OPTTOL=1.0E-4                                                                
 INPUT CARD> $END                                                                           
 INPUT CARD> $GUESS                                                                         
 INPUT CARD>   GUESS=HUCKEL                                                                 
 INPUT CARD> $END                                                                           
 INPUT CARD> $DATA                                                                          
 INPUT CARD>CH4                                                                             
 INPUT CARD>Cnv 3                                                                           
 INPUT CARD>                                                                                
 INPUT CARD> C           6.0   0.0000000000   0.0000000000   0.6979883327                   
 INPUT CARD> H           1.0   0.0000000000   0.0000000000   1.7842268879                   
 INPUT CARD> H           1.0   1.0241365916   0.0000000000   0.3359282598                   
 INPUT CARD> $END                                                                           
  125000000 WORDS OF MEMORY AVAILABLE

     BASIS OPTIONS
     -------------
     GBASIS=STO          IGAUSS=       3      POLAR=NONE    
     NDFUNC=       0     NFFUNC=       0     DIFFSP=       F
     NPFUNC=       0      DIFFS=       F     BASNAM=        


     RUN TITLE
     ---------
 CH4                                                                             

 THE POINT GROUP OF THE MOLECULE IS CNV     
 THE ORDER OF THE PRINCIPAL AXIS IS     3

 ATOM      ATOMIC                      COORDINATES (BOHR)
           CHARGE         X                   Y                   Z
 C           6.0     0.0000000000        0.0000000000        1.3190066914
 H           1.0     0.0000000000        0.0000000000        3.3716999181
 H           1.0    -0.9676687661        1.6760514677        0.6348123626
 H           1.0    -0.9676687661       -1.6760514677        0.6348123626
 H           1.0     1.9353375321        0.0000000000        0.6348123626

          INTERNUCLEAR DISTANCES (ANGS.)
          ------------------------------

                1 C          2 H          3 H          4 H          5 H     

   1 C       0.0000000    1.0862386 *  1.0862519 *  1.0862519 *  1.0862519 *
   2 H       1.0862386 *  0.0000000    1.7738164 *  1.7738164 *  1.7738164 *
   3 H       1.0862519 *  1.7738164 *  0.0000000    1.7738566 *  1.7738566 *
   4 H       1.0862519 *  1.7738164 *  1.7738566 *  0.0000000    1.7738566 *
   5 H       1.0862519 *  1.7738164 *  1.7738566 *  1.7738566 *  0.0000000  

  * ... LESS THAN  3.000


     ATOMIC BASIS SET
     ----------------
 THE CONTRACTED PRIMITIVE FUNCTIONS HAVE BEEN UNNORMALIZED
 THE CONTRACTED BASIS FUNCTIONS ARE NOW NORMALIZED TO UNITY

  SHELL TYPE  PRIMITIVE        EXPONENT          CONTRACTION COEFFICIENT(S)

 C         

      1   S       1            71.6168373    0.154328967295
      1   S       2            13.0450963    0.535328142282
      1   S       3             3.5305122    0.444634542185

      2   L       4             2.9412494   -0.099967229187    0.155916274999
      2   L       5             0.6834831    0.399512826089    0.607683718598
      2   L       6             0.2222899    0.700115468880    0.391957393099

 H         

      3   S       7             3.4252509    0.154328967295
      3   S       8             0.6239137    0.535328142282
      3   S       9             0.1688554    0.444634542185

 H         

      6   S      10             3.4252509    0.154328967295
      6   S      11             0.6239137    0.535328142282
      6   S      12             0.1688554    0.444634542185

 TOTAL NUMBER OF BASIS SET SHELLS             =    6
 NUMBER OF CARTESIAN GAUSSIAN BASIS FUNCTIONS =    9
 NUMBER OF ELECTRONS                          =   10
 CHARGE OF MOLECULE                           =    0
 SPIN MULTIPLICITY                            =    1
 NUMBER OF OCCUPIED ORBITALS (ALPHA)          =    5
 NUMBER OF OCCUPIED ORBITALS (BETA )          =    5
 TOTAL NUMBER OF ATOMS                        =    5
 THE NUCLEAR REPULSION ENERGY IS       13.4817900223

     $CONTRL OPTIONS
     ---------------
 SCFTYP=RHF          RUNTYP=OPTIMIZE     EXETYP=RUN     
 MPLEVL=       0     CITYP =NONE         CCTYP =NONE         VBTYP =NONE    
 DFTTYP=NONE         TDDFT =NONE    
 MULT  =       1     ICHARG=       0     NZVAR =       0     COORD =UNIQUE  
 PP    =NONE         RELWFN=NONE         LOCAL =RUEDNBRG     NUMGRD=       F
 ISPHER=      -1     NOSYM =       0     MAXIT =      30     UNITS =ANGS    
 PLTORB=       F     MOLPLT=       F     AIMPAC=       F     FRIEND=        
 NPRINT=       7     IREST =       0     GEOM  =INPUT   
 NORMF =       0     NORMP =       0     ITOL  =      20     ICUT  =       9
 INTTYP=BEST         GRDTYP=BEST         QMTTOL= 1.0E-06

     $SYSTEM OPTIONS
     ---------------
  REPLICATED MEMORY=   125000000 WORDS (ON EVERY NODE).
 DISTRIBUTED MEMDDI=           0 MILLION WORDS IN AGGREGATE,
 MEMDDI DISTRIBUTED OVER   1 PROCESSORS IS           0 WORDS/PROCESSOR.
 TOTAL MEMORY REQUESTED ON EACH PROCESSOR=   125000000 WORDS.
 TIMLIM=      525600.00 MINUTES, OR     365.0 DAYS.
 PARALL= F  BALTYP=  DLB     KDIAG=    0  COREFL= F
 MXSEQ2=     300 MXSEQ3=     150  mem10=         0

          ----------------
          PROPERTIES INPUT
          ----------------

     MOMENTS            FIELD           POTENTIAL          DENSITY
 IEMOM =       1   IEFLD =       0   IEPOT =       0   IEDEN =       0
 WHERE =COMASS     WHERE =NUCLEI     WHERE =NUCLEI     WHERE =NUCLEI  
 OUTPUT=BOTH       OUTPUT=BOTH       OUTPUT=BOTH       OUTPUT=BOTH    
 IEMINT=       0   IEFINT=       0                     IEDINT=       0
                                                       MORB  =       0
          EXTRAPOLATION IN EFFECT
 ORBITAL PRINTING OPTION: NPREO=     1     9     2     1

     -------------------------------
     INTEGRAL TRANSFORMATION OPTIONS
     -------------------------------
     NWORD  =            0
     CUTOFF = 1.0E-09     MPTRAN =       0
     DIRTRF =       F     AOINTS =DUP     

          -----------------------------
          LOCALIZATION INPUT PARAMETERS
          -----------------------------
           LOCAL=RUEDNBRG      NOUTA=       1
          PRTLOC=       F      NOUTB=       0
          MAXLOC=     250     CVGLOC=1.00E-06
           FCORE=       T     SYMLOC=       F
          MOIDON=       F     EDCOMP=       F
          DIPDCM=       F      NPROT=       0
          QADDCM=       F     DEPRNT=       F
          POLNUM=       F     ORIENT=       F
          POLDYN=       F      VMTOL=1.50E-01
          NPRDTL=       2
          MOOUTA =      1

          ----------------------
          INTEGRAL INPUT OPTIONS
          ----------------------
 NOPK  =       1 NORDER=       0 SCHWRZ=       F

     ------------------------------------------
     THE POINT GROUP IS CNV, NAXIS= 3, ORDER= 6
     ------------------------------------------

     DIMENSIONS OF THE SYMMETRY SUBSPACES ARE
 A1  =    5     A2  =    0     E   =    2

 ..... DONE SETTING UP THE RUN .....
 STEP CPU TIME =     0.00 TOTAL CPU TIME =        0.0 (    0.0 MIN)
 TOTAL WALL CLOCK TIME=        0.0 SECONDS, CPU UTILIZATION IS   0.00%


          -----------------------------
          STATIONARY POINT LOCATION RUN
          -----------------------------

 OBTAINING INITIAL HESSIAN, HESS=GUESS   
 CARTESIAN COORDINATE OPTIMIZATION USING BADGER'S RULE FORCE CONSTANT GUESS

          PARAMETERS CONTROLLING GEOMETRY SEARCH ARE
          METHOD =QA                  UPHESS =BFGS    
          NNEG   =         0          NFRZ   =         0
          NSTEP  =        50          IFOLOW =         1
          HESS   =GUESS               RESTAR =         F
          IHREP  =         0          HSSEND =         F
          NPRT   =         0          NPUN   =         0
          OPTTOL = 1.000E-04          RMIN   = 1.500E-03
          RMAX   = 1.000E-01          RLIM   = 7.000E-02
          DXMAX  = 3.000E-01          PURIFY =         F
          MOVIE  =         F          TRUPD  =         T
          TRMAX  = 5.000E-01          TRMIN  = 5.000E-02
          ITBMAT =         5          STPT   =         F
          STSTEP = 1.000E-02          PROJCT=          T

 BEGINNING GEOMETRY SEARCH POINT NSERCH=   0 ...

 COORDINATES OF SYMMETRY UNIQUE ATOMS (ANGS)
   ATOM   CHARGE       X              Y              Z
 ------------------------------------------------------------
 C           6.0   0.0000000000   0.0000000000   0.6979883327
 H           1.0   0.0000000000   0.0000000000   1.7842268879
 H           1.0   1.0241365916   0.0000000000   0.3359282598
 COORDINATES OF ALL ATOMS ARE (ANGS)
   ATOM   CHARGE       X              Y              Z
 ------------------------------------------------------------
 C           6.0   0.0000000000   0.0000000000   0.6979883327
 H           1.0   0.0000000000   0.0000000000   1.7842268879
 H           1.0  -0.5120682958   0.8869283053   0.3359282598
 H           1.0  -0.5120682958  -0.8869283053   0.3359282598
 H           1.0   1.0241365916   0.0000000000   0.3359282598

          ********************
          1 ELECTRON INTEGRALS
          ********************
 ...... END OF ONE-ELECTRON INTEGRALS ......
 STEP CPU TIME =     0.01 TOTAL CPU TIME =        0.0 (    0.0 MIN)
 TOTAL WALL CLOCK TIME=        0.0 SECONDS, CPU UTILIZATION IS  33.33%

          -------------
          GUESS OPTIONS
          -------------
          GUESS =HUCKEL            NORB  =       0          NORDER=       0
          MIX   =       F          PRTMO =       F          PUNMO =       F
          TOLZ  = 1.0E-08          TOLE  = 1.0E-05
          SYMDEN=       F          PURIFY=       F

 INITIAL GUESS ORBITALS GENERATED BY HUCKEL   ROUTINE.
 HUCKEL GUESS REQUIRES      4205 WORDS.

 SYMMETRIES FOR INITIAL GUESS ORBITALS FOLLOW.   BOTH SET(S).
     5 ORBITALS ARE OCCUPIED (    1 CORE ORBITALS).
     2=?A1      3=?E       4=?E       5=?A1      6=?A1      7=?E       8=?E  
     9=?A1 
 ...... END OF INITIAL ORBITAL SELECTION ......
 STEP CPU TIME =     0.00 TOTAL CPU TIME =        0.0 (    0.0 MIN)
 TOTAL WALL CLOCK TIME=        0.0 SECONDS, CPU UTILIZATION IS  25.00%

                    ----------------------
                    AO INTEGRAL TECHNOLOGY
                    ----------------------
     S,P,L SHELL ROTATED AXIS INTEGRALS, REPROGRAMMED BY
        KAZUYA ISHIMURA (IMS) AND JOSE SIERRA (SYNSTAR).
     S,P,D,L SHELL ROTATED AXIS INTEGRALS PROGRAMMED BY
        KAZUYA ISHIMURA (INSTITUTE FOR MOLECULAR SCIENCE).
     S,P,D,F,G SHELL TO TOTAL QUARTET ANGULAR MOMENTUM SUM 5,
        ERIC PROGRAM BY GRAHAM FLETCHER (ELORET AND NASA ADVANCED
        SUPERCOMPUTING DIVISION, AMES RESEARCH CENTER).
     S,P,D,F,G,L SHELL GENERAL RYS QUADRATURE PROGRAMMED BY
        MICHEL DUPUIS (PACIFIC NORTHWEST NATIONAL LABORATORY).

          --------------------
          2 ELECTRON INTEGRALS
          --------------------

 THE -PK- OPTION IS OFF, THE INTEGRALS ARE NOT IN SUPERMATRIX FORM.
 STORING   15000 INTEGRALS/RECORD ON DISK, USING 12 BYTES/INTEGRAL.
 TWO ELECTRON INTEGRAL EVALUATION REQUIRES   89377 WORDS OF MEMORY.
 II,JST,KST,LST =  1  1  1  1 NREC =         1 INTLOC =    1
 II,JST,KST,LST =  2  1  1  1 NREC =         1 INTLOC =    2
 II,JST,KST,LST =  3  1  1  1 NREC =         1 INTLOC =   34
 II,JST,KST,LST =  4  1  1  1 NREC =         1 INTLOC =   84
 II,JST,KST,LST =  5  1  1  1 NREC =         1 INTLOC =   84
 II,JST,KST,LST =  6  1  1  1 NREC =         1 INTLOC =   84
 TOTAL NUMBER OF NONZERO TWO-ELECTRON INTEGRALS =                 277
          1 INTEGRAL RECORDS WERE STORED ON DISK FILE  8.
  ...... END OF TWO-ELECTRON INTEGRALS .....
 STEP CPU TIME =     0.02 TOTAL CPU TIME =        0.0 (    0.0 MIN)
 TOTAL WALL CLOCK TIME=        0.0 SECONDS, CPU UTILIZATION IS  60.00%

          --------------------------
                 RHF SCF CALCULATION
          --------------------------

     NUCLEAR ENERGY =        13.4817900223
     MAXIT =   30     NPUNCH=    2
     EXTRAP=T  DAMP=F  SHIFT=F  RSTRCT=F  DIIS=F  DEM=F  SOSCF=F
     DENSITY MATRIX CONV=  1.00E-05
     MEMORY REQUIRED FOR RHF ITERS=     30693 WORDS.
 RHFCL F

 ITER EX DEM     TOTAL ENERGY        E CHANGE  DENSITY CHANGE    DIIS ERROR
   1  0  0      -39.6815177454   -39.6815177454   0.290840177   0.000000000
   2  1  0      -39.7256072592    -0.0440895138   0.035097595   0.000000000
   3  2  0      -39.7267632117    -0.0011559525   0.015973378   0.000000000
   4  3  0      -39.7268245489    -0.0000613371   0.002651147   0.000000000
   5  0  0      -39.7268281202    -0.0000035713   0.001137173   0.000000000
   6  1  0      -39.7268283482    -0.0000002280   0.000005048   0.000000000
   7  2  0      -39.7268283482    -0.0000000000   0.000001318   0.000000000
   8  3  0      -39.7268283482    -0.0000000000   0.000000324   0.000000000

          -----------------
          DENSITY CONVERGED
          -----------------
     TIME TO FORM FOCK OPERATORS=       0.0 SECONDS (       0.0 SEC/ITER)
     TIME TO SOLVE SCF EQUATIONS=       0.0 SECONDS (       0.0 SEC/ITER)

 FINAL RHF ENERGY IS      -39.7268283482 AFTER   8 ITERATIONS
 ...... END OF RHF CALCULATION ......
 STEP CPU TIME =     0.00 TOTAL CPU TIME =        0.0 (    0.0 MIN)
 TOTAL WALL CLOCK TIME=        0.0 SECONDS, CPU UTILIZATION IS  60.00%

     ----------------------------------------------------------------
     PROPERTY VALUES FOR THE RHF   SELF-CONSISTENT FIELD WAVEFUNCTION
     ----------------------------------------------------------------

          -----------------
          ENERGY COMPONENTS
          -----------------

         WAVEFUNCTION NORMALIZATION =       1.0000000000

                ONE ELECTRON ENERGY =     -79.4211813338
                TWO ELECTRON ENERGY =      26.2125629633
           NUCLEAR REPULSION ENERGY =      13.4817900223
                                      ------------------
                       TOTAL ENERGY =     -39.7268283482

 ELECTRON-ELECTRON POTENTIAL ENERGY =      26.2125629633
  NUCLEUS-ELECTRON POTENTIAL ENERGY =    -118.8767248809
   NUCLEUS-NUCLEUS POTENTIAL ENERGY =      13.4817900223
                                      ------------------
             TOTAL POTENTIAL ENERGY =     -79.1823718953
               TOTAL KINETIC ENERGY =      39.4555435471
                 VIRIAL RATIO (V/T) =       2.0068757081

          ---------------------------------------
          MULLIKEN AND LOWDIN POPULATION ANALYSES
          ---------------------------------------

     ATOMIC MULLIKEN POPULATION IN EACH MOLECULAR ORBITAL

                      1          2          3          4          5

                  2.000000   2.000000   2.000000   2.000000   2.000000

    1             2.003936   1.177406   1.025902   1.025902   1.025909
    2            -0.000984   0.205659   0.000000   0.000000   0.730561
    3            -0.000984   0.205645   0.162350   0.487049   0.081177
    4            -0.000984   0.205645   0.162350   0.487049   0.081177
    5            -0.000984   0.205645   0.649398   0.000000   0.081177

               ----- POPULATIONS IN EACH AO -----
                             MULLIKEN      LOWDIN
              1  C  1  S      1.99201     1.98564
              2  C  1  S      1.18933     1.00127
              3  C  1  X      1.02590     1.05164
              4  C  1  Y      1.02590     1.05164
              5  C  1  Z      1.02591     1.05165
              6  H  2  S      0.93524     0.96454
              7  H  3  S      0.93524     0.96454
              8  H  4  S      0.93524     0.96454
              9  H  5  S      0.93524     0.96454

          ----- MULLIKEN ATOMIC OVERLAP POPULATIONS -----
          (OFF-DIAGONAL ELEMENTS NEED TO BE MULTIPLIED BY 2)

             1           2           3           4           5

    1    4.7183722
    2    0.3851711   0.6095413
    3    0.3851709  -0.0198255   0.6095378
    4    0.3851709  -0.0198255  -0.0198236   0.6095378
    5    0.3851709  -0.0198255  -0.0198236  -0.0198236   0.6095378

          TOTAL MULLIKEN AND LOWDIN ATOMIC POPULATIONS
       ATOM         MULL.POP.    CHARGE          LOW.POP.     CHARGE
    1 C             6.259056   -0.259056         6.141846   -0.141846
    2 H             0.935236    0.064764         0.964539    0.035461
    3 H             0.935236    0.064764         0.964538    0.035462
    4 H             0.935236    0.064764         0.964538    0.035462
    5 H             0.935236    0.064764         0.964538    0.035462

          -------------------------------
          BOND ORDER AND VALENCE ANALYSIS     BOND ORDER THRESHOLD=0.050
          -------------------------------

                   BOND                       BOND                       BOND
  ATOM PAIR DIST  ORDER      ATOM PAIR DIST  ORDER      ATOM PAIR DIST  ORDER
    1   2  1.086  0.991        1   3  1.086  0.991        1   4  1.086  0.991
    1   5  1.086  0.991

                       TOTAL       BONDED        FREE
      ATOM            VALENCE     VALENCE     VALENCE
    1 C                 3.965       3.965      -0.000
    2 H                 0.996       0.996      -0.000
    3 H                 0.996       0.996      -0.000
    4 H                 0.996       0.996      -0.000
    5 H                 0.996       0.996      -0.000

          ---------------------
          ELECTROSTATIC MOMENTS
          ---------------------

 POINT   1           X           Y           Z (BOHR)    CHARGE
                -0.000000    0.000000    1.319014       -0.00 (A.U.)
         DX          DY          DZ         /D/  (DEBYE)
    -0.000000    0.000000    0.000017    0.000017
 ...... END OF PROPERTY EVALUATION ......
 STEP CPU TIME =     0.00 TOTAL CPU TIME =        0.0 (    0.0 MIN)
 TOTAL WALL CLOCK TIME=        0.1 SECONDS, CPU UTILIZATION IS  50.00%

 BEGINNING ONE ELECTRON GRADIENT...
 ..... END OF 1-ELECTRON GRADIENT ......
 STEP CPU TIME =     0.00 TOTAL CPU TIME =        0.0 (    0.0 MIN)
 TOTAL WALL CLOCK TIME=        0.1 SECONDS, CPU UTILIZATION IS  50.00%

          ----------------------
          GRADIENT OF THE ENERGY
          ----------------------
 THE COARSE/FINE SCHWARZ SCREENINGS SKIPPED            0/           0 BLOCKS.
 THE NUMBER OF GRADIENT INTEGRAL BLOCKS COMPUTED WAS        73
 ...... END OF 2-ELECTRON GRADIENT ......
 STEP CPU TIME =     0.00 TOTAL CPU TIME =        0.0 (    0.0 MIN)
 TOTAL WALL CLOCK TIME=        0.1 SECONDS, CPU UTILIZATION IS  50.00%

          NSERCH=  0     ENERGY=     -39.7268283

                                 -----------------------
                                 GRADIENT (HARTREE/BOHR)
                                 -----------------------
        ATOM     ZNUC       DE/DX         DE/DY         DE/DZ
 --------------------------------------------------------------
    1  C            6.0     0.0000000     0.0000000     0.0000010
    2  H            1.0     0.0000000     0.0000000     0.0028689
    3  H            1.0    -0.0013597     0.0023550    -0.0009567
    4  H            1.0    -0.0013597    -0.0023550    -0.0009567
    5  H            1.0     0.0027193     0.0000000    -0.0009567

          MAXIMUM GRADIENT = 0.0028689    RMS GRADIENT = 0.0014868

 NSERCH:   0  E=      -39.7268283482  GRAD. MAX=  0.0028689  R.M.S.=  0.0014868

          FORCE CONSTANT MATRIX NOT UPDATED --- TAKING FIRST STEP
          MIN SEARCH, CORRECT HESSIAN, TRYING PURE NR STEP
               NR STEP HAS LENGTH         =   0.011613
          RADIUS OF STEP TAKEN=   0.01161  CURRENT TRUST RADIUS=   0.30000

 BEGINNING GEOMETRY SEARCH POINT NSERCH=   1 ...

 COORDINATES OF SYMMETRY UNIQUE ATOMS (ANGS)
   ATOM   CHARGE       X              Y              Z
 ------------------------------------------------------------
 C           6.0  -0.0000000000   0.0000000000   0.6980417579
 H           1.0   0.0000000000   0.0000000000   1.7812095482
 H           1.0   1.0212079986   0.0000000000   0.3369162313
 COORDINATES OF ALL ATOMS ARE (ANGS)
   ATOM   CHARGE       X              Y              Z
 ------------------------------------------------------------
 C           6.0  -0.0000000000   0.0000000000   0.6980417579
 H           1.0   0.0000000000   0.0000000000   1.7812095482
 H           1.0  -0.5106039993   0.8843920693   0.3369162313
 H           1.0  -0.5106039993  -0.8843920693   0.3369162313
 H           1.0   1.0212079986   0.0000000000   0.3369162313

          INTERNUCLEAR DISTANCES (ANGS.)
          ------------------------------

                1 C          2 H          3 H          4 H          5 H     

   1 C       0.0000000    1.0831678 *  1.0831793 *  1.0831793 *  1.0831793 *
   2 H       1.0831678 *  0.0000000    1.7688553 *  1.7688553 *  1.7688553 *
   3 H       1.0831793 *  1.7688553 *  0.0000000    1.7687841 *  1.7687841 *
   4 H       1.0831793 *  1.7688553 *  1.7687841 *  0.0000000    1.7687841 *
   5 H       1.0831793 *  1.7688553 *  1.7687841 *  1.7687841 *  0.0000000  

  * ... LESS THAN  3.000

 ...... END OF ONE-ELECTRON INTEGRALS ......
 STEP CPU TIME =     0.00 TOTAL CPU TIME =        0.0 (    0.0 MIN)
 TOTAL WALL CLOCK TIME=        0.1 SECONDS, CPU UTILIZATION IS  50.00%
 TOTAL NUMBER OF NONZERO TWO-ELECTRON INTEGRALS =                 277
          1 INTEGRAL RECORDS WERE STORED ON DISK FILE  8.
  ...... END OF TWO-ELECTRON INTEGRALS .....
 STEP CPU TIME =     0.00 TOTAL CPU TIME =        0.0 (    0.0 MIN)
 TOTAL WALL CLOCK TIME=        0.1 SECONDS, CPU UTILIZATION IS  50.00%

          --------------------------
                 RHF SCF CALCULATION
          --------------------------
     DENSITY MATRIX CONV=  1.00E-05
 RHFCL F

 ITER EX DEM     TOTAL ENERGY        E CHANGE  DENSITY CHANGE    DIIS ERROR
   1  0  0      -39.7268620559   -39.7268620559   0.001127134   0.000000000
   2  1  0      -39.7268635246    -0.0000014687   0.000478114   0.000000000
   3  2  0      -39.7268635790    -0.0000000544   0.000042195   0.000000000
   4  3  0      -39.7268635815    -0.0000000025   0.000023671   0.000000000
   5  4  0      -39.7268635817    -0.0000000001   0.000003369   0.000000000
   6  5  0      -39.7268635817    -0.0000000000   0.000001274   0.000000000

          -----------------
          DENSITY CONVERGED
          -----------------
     TIME TO FORM FOCK OPERATORS=       0.0 SECONDS (       0.0 SEC/ITER)
     TIME TO SOLVE SCF EQUATIONS=       0.0 SECONDS (       0.0 SEC/ITER)

 FINAL RHF ENERGY IS      -39.7268635817 AFTER   6 ITERATIONS
 ...... END OF RHF CALCULATION ......
 STEP CPU TIME =     0.00 TOTAL CPU TIME =        0.0 (    0.0 MIN)
 TOTAL WALL CLOCK TIME=        0.1 SECONDS, CPU UTILIZATION IS  50.00%
 ..... END OF 1-ELECTRON GRADIENT ......
 STEP CPU TIME =     0.00 TOTAL CPU TIME =        0.0 (    0.0 MIN)
 TOTAL WALL CLOCK TIME=        0.1 SECONDS, CPU UTILIZATION IS  50.00%
 ...... END OF 2-ELECTRON GRADIENT ......
 STEP CPU TIME =     0.00 TOTAL CPU TIME =        0.0 (    0.0 MIN)
 TOTAL WALL CLOCK TIME=        0.1 SECONDS, CPU UTILIZATION IS  50.00%

          NSERCH=  1     ENERGY=     -39.7268636

                                 -----------------------
                                 GRADIENT (HARTREE/BOHR)
                                 -----------------------
        ATOM     ZNUC       DE/DX         DE/DY         DE/DZ
 --------------------------------------------------------------
    1  C            6.0     0.0000000     0.0000000     0.0000395
    2  H            1.0     0.0000000     0.0000000     0.0001437
    3  H            1.0    -0.0000690     0.0001195    -0.0000611
    4  H            1.0    -0.0000690    -0.0001195    -0.0000611
    5  H            1.0     0.0001379     0.0000000    -0.0000611

          MAXIMUM GRADIENT = 0.0001437    RMS GRADIENT = 0.0000777

 NSERCH:   1  E=      -39.7268635817  GRAD. MAX=  0.0001437  R.M.S.=  0.0000777

          HESSIAN UPDATED USING THE BFGS FORMULA
             ACTUAL ENERGY CHANGE WAS  -0.0000352335
          PREDICTED ENERGY CHANGE WAS  -0.0000334323 RATIO=  1.054
          MIN SEARCH, CORRECT HESSIAN, TRYING PURE NR STEP
               NR STEP HAS LENGTH         =   0.000900
          RADIUS OF STEP TAKEN=   0.00090  CURRENT TRUST RADIUS=   0.05000

 BEGINNING GEOMETRY SEARCH POINT NSERCH=   2 ...

 COORDINATES OF SYMMETRY UNIQUE ATOMS (ANGS)
   ATOM   CHARGE       X              Y              Z
 ------------------------------------------------------------
 C           6.0  -0.0000000000   0.0000000000   0.6978545641
 H           1.0   0.0000000000  -0.0000000000   1.7809013678
 H           1.0   1.0211372249   0.0000000000   0.3370813560
 COORDINATES OF ALL ATOMS ARE (ANGS)
   ATOM   CHARGE       X              Y              Z
 ------------------------------------------------------------
 C           6.0  -0.0000000000   0.0000000000   0.6978545641
 H           1.0   0.0000000000  -0.0000000000   1.7809013678
 H           1.0  -0.5105686125   0.8843307776   0.3370813560
 H           1.0  -0.5105686125  -0.8843307776   0.3370813560
 H           1.0   1.0211372249   0.0000000000   0.3370813560

          INTERNUCLEAR DISTANCES (ANGS.)
          ------------------------------

                1 C          2 H          3 H          4 H          5 H     

   1 C       0.0000000    1.0830468 *  1.0829952 *  1.0829952 *  1.0829952 *
   2 H       1.0830468 *  0.0000000    1.7684280 *  1.7684280 *  1.7684280 *
   3 H       1.0829952 *  1.7684280 *  0.0000000    1.7686616 *  1.7686616 *
   4 H       1.0829952 *  1.7684280 *  1.7686616 *  0.0000000    1.7686616 *
   5 H       1.0829952 *  1.7684280 *  1.7686616 *  1.7686616 *  0.0000000  

  * ... LESS THAN  3.000

 ...... END OF ONE-ELECTRON INTEGRALS ......
 STEP CPU TIME =     0.00 TOTAL CPU TIME =        0.0 (    0.0 MIN)
 TOTAL WALL CLOCK TIME=        0.1 SECONDS, CPU UTILIZATION IS  50.00%
 TOTAL NUMBER OF NONZERO TWO-ELECTRON INTEGRALS =                 277
          1 INTEGRAL RECORDS WERE STORED ON DISK FILE  8.
  ...... END OF TWO-ELECTRON INTEGRALS .....
 STEP CPU TIME =     0.00 TOTAL CPU TIME =        0.0 (    0.0 MIN)
 TOTAL WALL CLOCK TIME=        0.1 SECONDS, CPU UTILIZATION IS  50.00%

          --------------------------
                 RHF SCF CALCULATION
          --------------------------
     DENSITY MATRIX CONV=  1.00E-05
 RHFCL F

 ITER EX DEM     TOTAL ENERGY        E CHANGE  DENSITY CHANGE    DIIS ERROR
   1  0  0      -39.7268636401   -39.7268636401   0.000076488   0.000000000
   2  1  0      -39.7268636489    -0.0000000089   0.000026352   0.000000000
   3  2  0      -39.7268636493    -0.0000000004   0.000004081   0.000000000
   4  3  0      -39.7268636494    -0.0000000000   0.000001304   0.000000000

          -----------------
          DENSITY CONVERGED
          -----------------
     TIME TO FORM FOCK OPERATORS=       0.0 SECONDS (       0.0 SEC/ITER)
     TIME TO SOLVE SCF EQUATIONS=       0.0 SECONDS (       0.0 SEC/ITER)

 FINAL RHF ENERGY IS      -39.7268636494 AFTER   4 ITERATIONS
 ...... END OF RHF CALCULATION ......
 STEP CPU TIME =     0.00 TOTAL CPU TIME =        0.0 (    0.0 MIN)
 TOTAL WALL CLOCK TIME=        0.1 SECONDS, CPU UTILIZATION IS  42.86%
 ..... END OF 1-ELECTRON GRADIENT ......
 STEP CPU TIME =     0.00 TOTAL CPU TIME =        0.0 (    0.0 MIN)
 TOTAL WALL CLOCK TIME=        0.1 SECONDS, CPU UTILIZATION IS  42.86%
 ...... END OF 2-ELECTRON GRADIENT ......
 STEP CPU TIME =     0.00 TOTAL CPU TIME =        0.0 (    0.0 MIN)
 TOTAL WALL CLOCK TIME=        0.1 SECONDS, CPU UTILIZATION IS  42.86%

          NSERCH=  2     ENERGY=     -39.7268636

                                 -----------------------
                                 GRADIENT (HARTREE/BOHR)
                                 -----------------------
        ATOM     ZNUC       DE/DX         DE/DY         DE/DZ
 --------------------------------------------------------------
    1  C            6.0     0.0000000     0.0000000    -0.0001461
    2  H            1.0     0.0000000     0.0000000     0.0000237
    3  H            1.0    -0.0000016     0.0000027     0.0000408
    4  H            1.0    -0.0000016    -0.0000027     0.0000408
    5  H            1.0     0.0000031     0.0000000     0.0000408

          MAXIMUM GRADIENT = 0.0001461    RMS GRADIENT = 0.0000424

 NSERCH:   2  E=      -39.7268636494  GRAD. MAX=  0.0001461  R.M.S.=  0.0000424

          HESSIAN UPDATED USING THE BFGS FORMULA
             ACTUAL ENERGY CHANGE WAS  -0.0000000677
          PREDICTED ENERGY CHANGE WAS  -0.0000001051 RATIO=  0.644
          MIN SEARCH, CORRECT HESSIAN, TRYING PURE NR STEP
               NR STEP HAS LENGTH         =   0.001226
          RADIUS OF STEP TAKEN=   0.00123  CURRENT TRUST RADIUS=   0.05000

 BEGINNING GEOMETRY SEARCH POINT NSERCH=   3 ...

 COORDINATES OF SYMMETRY UNIQUE ATOMS (ANGS)
   ATOM   CHARGE       X              Y              Z
 ------------------------------------------------------------
 C           6.0  -0.0000000000   0.0000000000   0.6982065949
 H           1.0   0.0000000000  -0.0000000000   1.7810690690
 H           1.0   1.0208929091   0.0000000000   0.3369081121
 COORDINATES OF ALL ATOMS ARE (ANGS)
   ATOM   CHARGE       X              Y              Z
 ------------------------------------------------------------
 C           6.0  -0.0000000000   0.0000000000   0.6982065949
 H           1.0   0.0000000000  -0.0000000000   1.7810690690
 H           1.0  -0.5104464546   0.8841191938   0.3369081121
 H           1.0  -0.5104464546  -0.8841191938   0.3369081121
 H           1.0   1.0208929091   0.0000000000   0.3369081121

          INTERNUCLEAR DISTANCES (ANGS.)
          ------------------------------

                1 C          2 H          3 H          4 H          5 H     

   1 C       0.0000000    1.0828625 *  1.0829399 *  1.0829399 *  1.0829399 *
   2 H       1.0828625 *  0.0000000    1.7685653 *  1.7685653 *  1.7685653 *
   3 H       1.0829399 *  1.7685653 *  0.0000000    1.7682384 *  1.7682384 *
   4 H       1.0829399 *  1.7685653 *  1.7682384 *  0.0000000    1.7682384 *
   5 H       1.0829399 *  1.7685653 *  1.7682384 *  1.7682384 *  0.0000000  

  * ... LESS THAN  3.000

 ...... END OF ONE-ELECTRON INTEGRALS ......
 STEP CPU TIME =     0.00 TOTAL CPU TIME =        0.0 (    0.0 MIN)
 TOTAL WALL CLOCK TIME=        0.1 SECONDS, CPU UTILIZATION IS  42.86%
 TOTAL NUMBER OF NONZERO TWO-ELECTRON INTEGRALS =                 277
          1 INTEGRAL RECORDS WERE STORED ON DISK FILE  8.
  ...... END OF TWO-ELECTRON INTEGRALS .....
 STEP CPU TIME =     0.00 TOTAL CPU TIME =        0.0 (    0.0 MIN)
 TOTAL WALL CLOCK TIME=        0.1 SECONDS, CPU UTILIZATION IS  42.86%

          --------------------------
                 RHF SCF CALCULATION
          --------------------------
     DENSITY MATRIX CONV=  1.00E-05
 RHFCL F

 ITER EX DEM     TOTAL ENERGY        E CHANGE  DENSITY CHANGE    DIIS ERROR
   1  0  0      -39.7268635762   -39.7268635762   0.000142716   0.000000000
   2  1  0      -39.7268635928    -0.0000000166   0.000033999   0.000000000
   3  2  0      -39.7268635937    -0.0000000009   0.000007940   0.000000000
   4  3  0      -39.7268635937    -0.0000000000   0.000001944   0.000000000

          -----------------
          DENSITY CONVERGED
          -----------------
     TIME TO FORM FOCK OPERATORS=       0.0 SECONDS (       0.0 SEC/ITER)
     TIME TO SOLVE SCF EQUATIONS=       0.0 SECONDS (       0.0 SEC/ITER)

 FINAL RHF ENERGY IS      -39.7268635937 AFTER   4 ITERATIONS
 ...... END OF RHF CALCULATION ......
 STEP CPU TIME =     0.00 TOTAL CPU TIME =        0.0 (    0.0 MIN)
 TOTAL WALL CLOCK TIME=        0.1 SECONDS, CPU UTILIZATION IS  42.86%
 ..... END OF 1-ELECTRON GRADIENT ......
 STEP CPU TIME =     0.00 TOTAL CPU TIME =        0.0 (    0.0 MIN)
 TOTAL WALL CLOCK TIME=        0.1 SECONDS, CPU UTILIZATION IS  42.86%
 ...... END OF 2-ELECTRON GRADIENT ......
 STEP CPU TIME =     0.00 TOTAL CPU TIME =        0.0 (    0.0 MIN)
 TOTAL WALL CLOCK TIME=        0.1 SECONDS, CPU UTILIZATION IS  42.86%

          NSERCH=  3     ENERGY=     -39.7268636

                                 -----------------------
                                 GRADIENT (HARTREE/BOHR)
                                 -----------------------
        ATOM     ZNUC       DE/DX         DE/DY         DE/DZ
 --------------------------------------------------------------
    1  C            6.0     0.0000000     0.0000000     0.0002107
    2  H            1.0     0.0000000     0.0000000    -0.0001201
    3  H            1.0     0.0000410    -0.0000711    -0.0000302
    4  H            1.0     0.0000410     0.0000711    -0.0000302
    5  H            1.0    -0.0000821     0.0000000    -0.0000302

          MAXIMUM GRADIENT = 0.0002107    RMS GRADIENT = 0.0000738

 NSERCH:   3  E=      -39.7268635937  GRAD. MAX=  0.0002107  R.M.S.=  0.0000738

          HESSIAN UPDATED USING THE BFGS FORMULA
             ACTUAL ENERGY CHANGE WAS   0.0000000557
          PREDICTED ENERGY CHANGE WAS  -0.0000000670 RATIO= -0.830
          MIN SEARCH, CORRECT HESSIAN, TRYING PURE NR STEP
               NR STEP HAS LENGTH         =   0.000768
          RADIUS OF STEP TAKEN=   0.00077  CURRENT TRUST RADIUS=   0.05000

 BEGINNING GEOMETRY SEARCH POINT NSERCH=   4 ...

 COORDINATES OF SYMMETRY UNIQUE ATOMS (ANGS)
   ATOM   CHARGE       X              Y              Z
 ------------------------------------------------------------
 C           6.0  -0.0000000000   0.0000000000   0.6980023055
 H           1.0   0.0000000000  -0.0000000000   1.7810160215
 H           1.0   1.0210742528   0.0000000000   0.3369938910
 COORDINATES OF ALL ATOMS ARE (ANGS)
   ATOM   CHARGE       X              Y              Z
 ------------------------------------------------------------
 C           6.0  -0.0000000000   0.0000000000   0.6980023055
 H           1.0   0.0000000000  -0.0000000000   1.7810160215
 H           1.0  -0.5105371264   0.8842762420   0.3369938910
 H           1.0  -0.5105371264  -0.8842762420   0.3369938910
 H           1.0   1.0210742528   0.0000000000   0.3369938910

          INTERNUCLEAR DISTANCES (ANGS.)
          ------------------------------

                1 C          2 H          3 H          4 H          5 H     

   1 C       0.0000000    1.0830137 *  1.0830142 *  1.0830142 *  1.0830142 *
   2 H       1.0830137 *  0.0000000    1.7685566 *  1.7685566 *  1.7685566 *
   3 H       1.0830142 *  1.7685566 *  0.0000000    1.7685525 *  1.7685525 *
   4 H       1.0830142 *  1.7685566 *  1.7685525 *  0.0000000    1.7685525 *
   5 H       1.0830142 *  1.7685566 *  1.7685525 *  1.7685525 *  0.0000000  

  * ... LESS THAN  3.000

 ...... END OF ONE-ELECTRON INTEGRALS ......
 STEP CPU TIME =     0.00 TOTAL CPU TIME =        0.0 (    0.0 MIN)
 TOTAL WALL CLOCK TIME=        0.1 SECONDS, CPU UTILIZATION IS  42.86%
 TOTAL NUMBER OF NONZERO TWO-ELECTRON INTEGRALS =                 277
          1 INTEGRAL RECORDS WERE STORED ON DISK FILE  8.
  ...... END OF TWO-ELECTRON INTEGRALS .....
 STEP CPU TIME =     0.01 TOTAL CPU TIME =        0.0 (    0.0 MIN)
 TOTAL WALL CLOCK TIME=        0.1 SECONDS, CPU UTILIZATION IS  57.14%

          --------------------------
                 RHF SCF CALCULATION
          --------------------------
     DENSITY MATRIX CONV=  1.00E-05
 RHFCL F

 ITER EX DEM     TOTAL ENERGY        E CHANGE  DENSITY CHANGE    DIIS ERROR
   1  0  0      -39.7268636705   -39.7268636705   0.000082358   0.000000000
   2  1  0      -39.7268636770    -0.0000000065   0.000020035   0.000000000
   3  2  0      -39.7268636773    -0.0000000003   0.000004618   0.000000000
   4  3  0      -39.7268636773    -0.0000000000   0.000001143   0.000000000

          -----------------
          DENSITY CONVERGED
          -----------------
     TIME TO FORM FOCK OPERATORS=       0.0 SECONDS (       0.0 SEC/ITER)
     TIME TO SOLVE SCF EQUATIONS=       0.0 SECONDS (       0.0 SEC/ITER)

 FINAL RHF ENERGY IS      -39.7268636773 AFTER   4 ITERATIONS
 ...... END OF RHF CALCULATION ......
 STEP CPU TIME =     0.00 TOTAL CPU TIME =        0.0 (    0.0 MIN)
 TOTAL WALL CLOCK TIME=        0.1 SECONDS, CPU UTILIZATION IS  57.14%
 ..... END OF 1-ELECTRON GRADIENT ......
 STEP CPU TIME =     0.00 TOTAL CPU TIME =        0.0 (    0.0 MIN)
 TOTAL WALL CLOCK TIME=        0.1 SECONDS, CPU UTILIZATION IS  57.14%
 ...... END OF 2-ELECTRON GRADIENT ......
 STEP CPU TIME =     0.00 TOTAL CPU TIME =        0.0 (    0.0 MIN)
 TOTAL WALL CLOCK TIME=        0.1 SECONDS, CPU UTILIZATION IS  57.14%

          NSERCH=  4     ENERGY=     -39.7268637

                                 -----------------------
                                 GRADIENT (HARTREE/BOHR)
                                 -----------------------
        ATOM     ZNUC       DE/DX         DE/DY         DE/DZ
 --------------------------------------------------------------
    1  C            6.0     0.0000000     0.0000000     0.0000020
    2  H            1.0     0.0000000     0.0000000     0.0000032
    3  H            1.0    -0.0000015     0.0000026    -0.0000017
    4  H            1.0    -0.0000015    -0.0000026    -0.0000017
    5  H            1.0     0.0000029     0.0000000    -0.0000017

          MAXIMUM GRADIENT = 0.0000032    RMS GRADIENT = 0.0000018

 NSERCH:   4  E=      -39.7268636773  GRAD. MAX=  0.0000032  R.M.S.=  0.0000018


      ***** EQUILIBRIUM GEOMETRY LOCATED *****
 COORDINATES OF SYMMETRY UNIQUE ATOMS (ANGS)
   ATOM   CHARGE       X              Y              Z
 ------------------------------------------------------------
 C           6.0  -0.0000000000   0.0000000000   0.6980023055
 H           1.0   0.0000000000  -0.0000000000   1.7810160215
 H           1.0   1.0210742528   0.0000000000   0.3369938910
 COORDINATES OF ALL ATOMS ARE (ANGS)
   ATOM   CHARGE       X              Y              Z
 ------------------------------------------------------------
 C           6.0  -0.0000000000   0.0000000000   0.6980023055
 H           1.0   0.0000000000  -0.0000000000   1.7810160215
 H           1.0  -0.5105371264   0.8842762420   0.3369938910
 H           1.0  -0.5105371264  -0.8842762420   0.3369938910
 H           1.0   1.0210742528   0.0000000000   0.3369938910

          INTERNUCLEAR DISTANCES (ANGS.)
          ------------------------------

                1 C          2 H          3 H          4 H          5 H     

   1 C       0.0000000    1.0830137 *  1.0830142 *  1.0830142 *  1.0830142 *
   2 H       1.0830137 *  0.0000000    1.7685566 *  1.7685566 *  1.7685566 *
   3 H       1.0830142 *  1.7685566 *  0.0000000    1.7685525 *  1.7685525 *
   4 H       1.0830142 *  1.7685566 *  1.7685525 *  0.0000000    1.7685525 *
   5 H       1.0830142 *  1.7685566 *  1.7685525 *  1.7685525 *  0.0000000  

  * ... LESS THAN  3.000


          NUCLEAR ENERGY    =       13.5220546781
          ELECTRONIC ENERGY =      -53.2489183555
          TOTAL ENERGY      =      -39.7268636773

          ------------------
          MOLECULAR ORBITALS
          ------------------

                      1          2          3          4          5
                  -11.0297    -0.9121    -0.5205    -0.5205    -0.5205
                     A1         A1         A1         E          E   
    1  C  1  S    0.991926  -0.221431  -0.000000   0.000000   0.000000
    2  C  1  S    0.038355   0.627588   0.000002   0.000000   0.000000
    3  C  1  X    0.000000   0.000000   0.000000   0.571966   0.000000
    4  C  1  Y    0.000000   0.000000   0.000000   0.000000   0.571966
    5  C  1  Z   -0.000000  -0.000001   0.571965   0.000000   0.000000
    6  H  2  S   -0.007007   0.180567   0.521036   0.000000   0.000000
    7  H  3  S   -0.007007   0.180567  -0.173679  -0.245619   0.425424
    8  H  4  S   -0.007007   0.180567  -0.173679  -0.245619  -0.425424
    9  H  5  S   -0.007007   0.180567  -0.173679   0.491238   0.000000

                      6          7          8          9
                    0.7192     0.7192     0.7192     0.7611
                     E          E          A1         A1  
    1  C  1  S    0.000000   0.000000   0.000007  -0.252319
    2  C  1  S    0.000000   0.000000  -0.000048   1.632808
    3  C  1  X    1.106354   0.000000   0.000000   0.000000
    4  C  1  Y    0.000000   1.106354   0.000000   0.000000
    5  C  1  Z    0.000000   0.000000  -1.106357  -0.000036
    6  H  2  S    0.000000   0.000000   1.064929  -0.667690
    7  H  3  S    0.502003  -0.869495  -0.354951  -0.667731
    8  H  4  S    0.502003   0.869495  -0.354951  -0.667731
    9  H  5  S   -1.004006   0.000000  -0.354951  -0.667731

     ----------------------------------------------------------------
     PROPERTY VALUES FOR THE RHF   SELF-CONSISTENT FIELD WAVEFUNCTION
     ----------------------------------------------------------------

          -----------------
          ENERGY COMPONENTS
          -----------------

         WAVEFUNCTION NORMALIZATION =       1.0000000000

                ONE ELECTRON ENERGY =     -79.4913143919
                TWO ELECTRON ENERGY =      26.2423960365
           NUCLEAR REPULSION ENERGY =      13.5220546781
                                      ------------------
                       TOTAL ENERGY =     -39.7268636773

 ELECTRON-ELECTRON POTENTIAL ENERGY =      26.2423960365
  NUCLEUS-ELECTRON POTENTIAL ENERGY =    -118.9568734275
   NUCLEUS-NUCLEUS POTENTIAL ENERGY =      13.5220546781
                                      ------------------
             TOTAL POTENTIAL ENERGY =     -79.1924227129
               TOTAL KINETIC ENERGY =      39.4655590355
                 VIRIAL RATIO (V/T) =       2.0066210805

          ---------------------------------------
          MULLIKEN AND LOWDIN POPULATION ANALYSES
          ---------------------------------------

     ATOMIC MULLIKEN POPULATION IN EACH MOLECULAR ORBITAL

                      1          2          3          4          5

                  2.000000   2.000000   2.000000   2.000000   2.000000

    1             2.003988   1.176047   1.027531   1.027532   1.027532
    2            -0.000997   0.205988   0.729351   0.000000   0.000000
    3            -0.000997   0.205988   0.081039   0.162078   0.486234
    4            -0.000997   0.205988   0.081039   0.162078   0.486234
    5            -0.000997   0.205988   0.081039   0.648312   0.000000

               ----- POPULATIONS IN EACH AO -----
                             MULLIKEN      LOWDIN
              1  C  1  S      1.99200     1.98568
              2  C  1  S      1.18804     0.99886
              3  C  1  X      1.02753     1.05331
              4  C  1  Y      1.02753     1.05331
              5  C  1  Z      1.02753     1.05331
              6  H  2  S      0.93434     0.96388
              7  H  3  S      0.93434     0.96388
              8  H  4  S      0.93434     0.96388
              9  H  5  S      0.93434     0.96388

          ----- MULLIKEN ATOMIC OVERLAP POPULATIONS -----
          (OFF-DIAGONAL ELEMENTS NEED TO BE MULTIPLIED BY 2)

             1           2           3           4           5

    1    4.7191765
    2    0.3858640   0.6082637
    3    0.3858635  -0.0199286   0.6082650
    4    0.3858635  -0.0199286  -0.0199288   0.6082650
    5    0.3858635  -0.0199286  -0.0199288  -0.0199288   0.6082650

          TOTAL MULLIKEN AND LOWDIN ATOMIC POPULATIONS
       ATOM         MULL.POP.    CHARGE          LOW.POP.     CHARGE
    1 C             6.262631   -0.262631         6.144486   -0.144486
    2 H             0.934342    0.065658         0.963878    0.036122
    3 H             0.934342    0.065658         0.963879    0.036121
    4 H             0.934342    0.065658         0.963879    0.036121
    5 H             0.934342    0.065658         0.963879    0.036121

          -------------------------------
          BOND ORDER AND VALENCE ANALYSIS     BOND ORDER THRESHOLD=0.050
          -------------------------------

                   BOND                       BOND                       BOND
  ATOM PAIR DIST  ORDER      ATOM PAIR DIST  ORDER      ATOM PAIR DIST  ORDER
    1   2  1.083  0.991        1   3  1.083  0.991        1   4  1.083  0.991
    1   5  1.083  0.991

                       TOTAL       BONDED        FREE
      ATOM            VALENCE     VALENCE     VALENCE
    1 C                 3.965       3.965      -0.000
    2 H                 0.996       0.996      -0.000
    3 H                 0.996       0.996      -0.000
    4 H                 0.996       0.996      -0.000
    5 H                 0.996       0.996      -0.000

          ---------------------
          ELECTROSTATIC MOMENTS
          ---------------------

 POINT   1           X           Y           Z (BOHR)    CHARGE
                -0.000000    0.000000    1.319032       -0.00 (A.U.)
         DX          DY          DZ         /D/  (DEBYE)
    -0.000000    0.000000   -0.000002    0.000002
 ...... END OF PROPERTY EVALUATION ......
 STEP CPU TIME =     0.00 TOTAL CPU TIME =        0.0 (    0.0 MIN)
 TOTAL WALL CLOCK TIME=        0.1 SECONDS, CPU UTILIZATION IS  57.14%
  $VIB   
          IVIB=   0 IATOM=   0 ICOORD=   0 E=      -39.7268636773
  0.000000000E+00 0.000000000E+00 1.991792232E-06 0.000000000E+00 0.000000000E+00
  3.155894868E-06-1.473712564E-06 2.552545036E-06-1.715895605E-06-1.473712564E-06
 -2.552545036E-06-1.715895605E-06 2.947425127E-06 0.000000000E+00-1.715895605E-06
 -2.821927136E-15 1.118209289E-14-2.273868748E-06
 ......END OF GEOMETRY SEARCH......
 STEP CPU TIME =     0.00 TOTAL CPU TIME =        0.0 (    0.0 MIN)
 TOTAL WALL CLOCK TIME=        0.1 SECONDS, CPU UTILIZATION IS  57.14%

          ---------------------------------------
          EDMISTON-RUEDENBERG ENERGY LOCALIZATION
          ---------------------------------------
          C.EDMISTON AND K.RUEDENBERG, REV.MOD.PHYS. 35, 457-465 (1963)

          --------------------
          2 ELECTRON INTEGRALS
          --------------------

 THE -PK- OPTION IS OFF, THE INTEGRALS ARE NOT IN SUPERMATRIX FORM.
 STORING   15000 INTEGRALS/RECORD ON DISK, USING 12 BYTES/INTEGRAL.
 TWO ELECTRON INTEGRAL EVALUATION REQUIRES   89377 WORDS OF MEMORY.
 II,JST,KST,LST =  1  1  1  1 NREC =         1 INTLOC =    1
 II,JST,KST,LST =  2  1  1  1 NREC =         1 INTLOC =    2
 II,JST,KST,LST =  3  1  1  1 NREC =         1 INTLOC =   34
 II,JST,KST,LST =  4  1  1  1 NREC =         1 INTLOC =   84
 II,JST,KST,LST =  5  1  1  1 NREC =         1 INTLOC =  259
 II,JST,KST,LST =  6  1  1  1 NREC =         1 INTLOC =  514
 TOTAL NUMBER OF NONZERO TWO-ELECTRON INTEGRALS =                 829
          1 INTEGRAL RECORDS WERE STORED ON DISK FILE  8.
  ...... END OF TWO-ELECTRON INTEGRALS .....
 STEP CPU TIME =     0.00 TOTAL CPU TIME =        0.0 (    0.0 MIN)
 TOTAL WALL CLOCK TIME=        0.1 SECONDS, CPU UTILIZATION IS  57.14%

     --------------------------------------------
     PARTIAL TWO ELECTRON INTEGRAL TRANSFORMATION
     --------------------------------------------

 NUMBER OF CORE MOLECULAR ORBITALS     =    1
 NUMBER OF OCCUPIED MOLECULAR ORBITALS =    5
 TOTAL NUMBER OF MOLECULAR ORBITALS    =    5
 TOTAL NUMBER OF ATOMIC ORBITALS       =    9
 THRESHOLD FOR KEEPING TRANSFORMED 2E- INTEGRALS = 1.000E-09
 AO INTEGRALS WILL BE READ IN FROM DISK...

 PLAN A: REQUIREMENTS FOR FULLY IN-MEMORY TRANSFORMATION:
 # OF WORDS AVAILABLE =            124999800
 # OF WORDS NEEDED    =                62045

 CHOOSING IN MEMORY PARTIAL TRANSFORMATION...
 TOTAL NUMBER OF TRANSFORMED 2E- INTEGRALS KEPT =           28
 ... END OF INTEGRAL TRANSFORMATION ...
 STEP CPU TIME =     0.00 TOTAL CPU TIME =        0.0 (    0.0 MIN)
 TOTAL WALL CLOCK TIME=        0.1 SECONDS, CPU UTILIZATION IS  50.00%

          ---------------------------------------
          EDMISTON-RUEDENBERG ENERGY LOCALIZATION
          ---------------------------------------
          C.EDMISTON AND K.RUEDENBERG, REV.MOD.PHYS. 35, 457-465 (1963)

 THIS LOCALIZATION REQUIRES     30386 WORDS OF MEMORY.
 THIS LOCALIZATION HAS   5 ORBITALS, OF WHICH   1 ARE FROZEN.

 INITIAL LOCALIZATION SUMS ARE
     DIAGONAL SUM D=        2.1368713584
      COULOMB SUM C=        7.6988710640
     EXCHANGE SUM X=        2.9916878143

 BEGINNING 2X2 JACOBI ROTATIONS...
          3 PAIR ROTATIONS WHEN CONVERGED TO    1.00E-01
          5 PAIR ROTATIONS WHEN CONVERGED TO    1.00E-02
          4 PAIR ROTATIONS WHEN CONVERGED TO    1.00E-03
          2 PAIR ROTATIONS WHEN CONVERGED TO    1.00E-04
          3 PAIR ROTATIONS WHEN CONVERGED TO    1.00E-05
          4 PAIR ROTATIONS WHEN CONVERGED TO    1.00E-06
         21 TOTAL PAIR ROTATIONS REQUIRED TO CONVERGE TO    1.00E-06

   FINAL LOCALIZATION SUMS ARE
     DIAGONAL SUM D=        2.7815271644
      COULOMB SUM C=        7.6988710640
     EXCHANGE SUM X=        2.9916878143
 FOCK OPERATOR FOR THE LOCALIZED ORBITALS IS

             1           2           3           4

    1   -0.6183934
    2   -0.0978995  -0.6183942
    3   -0.0979000  -0.0978995  -0.6183934
    4   -0.0979001  -0.0978995  -0.0979001  -0.6183935

 EDMISTON-RUEDENBERG ENERGY LOCALIZED ORBITALS

                      1          2          3          4          5

    1  C  1  S    0.991926  -0.110715  -0.110716  -0.110715  -0.110715
    2  C  1  S    0.038355   0.313793   0.313795   0.313793   0.313793
    3  C  1  X    0.000000  -0.233504  -0.000000   0.467008  -0.233504
    4  C  1  Y    0.000000  -0.404441  -0.000000   0.000000   0.404441
    5  C  1  Z   -0.000000  -0.165113   0.495336  -0.165112  -0.165112
    6  H  2  S   -0.007007  -0.060127   0.541514  -0.060126  -0.060126
    7  H  3  S   -0.007007  -0.060127  -0.060127  -0.060127   0.541514
    8  H  4  S   -0.007007   0.541514  -0.060126  -0.060127  -0.060127
    9  H  5  S   -0.007007  -0.060126  -0.060127   0.541514  -0.060127
 ... DONE WITH ENERGY LOCALIZATION ...
 STEP CPU TIME =     0.00 TOTAL CPU TIME =        0.0 (    0.0 MIN)
 TOTAL WALL CLOCK TIME=        0.1 SECONDS, CPU UTILIZATION IS  50.00%
               580000  WORDS OF DYNAMIC MEMORY USED
 EXECUTION OF GAMESS TERMINATED NORMALLY Mon Jul 25 11:13:03 2016
 DDI: 263640 bytes (0.3 MB / 0 MWords) used by master data server.

 ----------------------------------------
 CPU timing information for all processes
 ========================================
 0: 0.34 + 0.18 = 0.52
 ----------------------------------------
 ddikick.x: exited gracefully.
